
     Program PWSCF v.7.1 starts on 28Apr2026 at 11:39:16 

     This program is part of the open-source Quantum ESPRESSO suite
     for quantum simulation of materials; please cite
         "P. Giannozzi et al., J. Phys.:Condens. Matter 21 395502 (2009);
         "P. Giannozzi et al., J. Phys.:Condens. Matter 29 465901 (2017);
         "P. Giannozzi et al., J. Chem. Phys. 152 154105 (2020);
          URL http://www.quantum-espresso.org", 
     in publications or presentations arising from this work. More details at
     http://www.quantum-espresso.org/quote

     Parallel version (MPI & OpenMP), running on       4 processor cores
     Number of MPI processes:                 4
     Threads/MPI process:                     1

     MPI processes distributed on     1 nodes
     380661 MiB available memory on the printing compute node when the environment starts
 
     Reading input from AlN_cutoff90.in

     Current dimensions of program PWSCF are:
     Max number of different atomic species (ntypx) = 10
     Max number of k-points (npk) = 150000
     Max angular momentum in pseudopotentials (lmaxx) =  4
     file Al.pbe-n-kjpaw_psl.1.0.0.UPF: wavefunction(s)  3S 3P renormalized
     file N.pbe-n-kjpaw_psl.1.0.0.UPF: wavefunction(s)  2S renormalized
     Message from routine setup:
     using ibrav=0 with symmetry is DISCOURAGED, use correct ibrav instead
 
     K-points division:     npool     =       2
     R & G space division:  proc/nbgrp/npool/nimage =       2
     Subspace diagonalization in iterative solution of the eigenvalue problem:
     a serial algorithm will be used

 
     Parallelization info
     --------------------
     sticks:   dense  smooth     PW     G-vecs:    dense   smooth      PW
     Min         372     372    111                 6660     6660    1114
     Max         373     373    112                 6663     6663    1115
     Sum         745     745    223                13323    13323    2229
 
     Using Slab Decomposition
 


     bravais-lattice index     =            0
     lattice parameter (alat)  =       5.4385  a.u.
     unit-cell volume          =     113.7417 (a.u.)^3
     number of atoms/cell      =            2
     number of atomic types    =            2
     number of electrons       =         8.00
     number of Kohn-Sham states=            8
     kinetic-energy cutoff     =      90.0000  Ry
     charge density cutoff     =     360.0000  Ry
     scf convergence threshold =      1.0E-08
     mixing beta               =       0.2000
     number of iterations used =            8  local-TF  mixing
     Exchange-correlation= SLA  PW   PBX  PBC
                           (   1   4   3   4   0   0   0)

     celldm(1)=   5.438489  celldm(2)=   0.000000  celldm(3)=   0.000000
     celldm(4)=   0.000000  celldm(5)=   0.000000  celldm(6)=   0.000000

     crystal axes: (cart. coord. in units of alat)
               a(1) = (  -0.707107   0.000000   0.707107 )  
               a(2) = (   0.000000   0.707107   0.707107 )  
               a(3) = (  -0.707107   0.707107   0.000000 )  

     reciprocal axes: (cart. coord. in units 2 pi/alat)
               b(1) = ( -0.707107 -0.707107  0.707107 )  
               b(2) = (  0.707107  0.707107  0.707107 )  
               b(3) = ( -0.707107  0.707107 -0.707107 )  


     PseudoPot. # 1 for Al read from file:
     ../../pseudo/Al.pbe-n-kjpaw_psl.1.0.0.UPF
     MD5 check sum: 502b6b27b9c6270cab5dd1084b96fa6d
     Pseudo is Projector augmented-wave + core cor, Zval =  3.0
     Generated using &quot;atomic&quot; code by A. Dal Corso  v.6.3
     Shape of augmentation charge: PSQ
     Using radial grid of 1135 points,  6 beta functions with: 
                l(1) =   0
                l(2) =   0
                l(3) =   1
                l(4) =   1
                l(5) =   2
                l(6) =   2
     Q(r) pseudized with 0 coefficients 


     PseudoPot. # 2 for N  read from file:
     ../../pseudo/N.pbe-n-kjpaw_psl.1.0.0.UPF
     MD5 check sum: 14c48229446f9f2d411169a3abcbc3fa
     Pseudo is Projector augmented-wave + core cor, Zval =  5.0
     Generated using &quot;atomic&quot; code by A. Dal Corso  v.6.3
     Shape of augmentation charge: PSQ
     Using radial grid of 1085 points,  4 beta functions with: 
                l(1) =   0
                l(2) =   0
                l(3) =   1
                l(4) =   1
     Q(r) pseudized with 0 coefficients 


     atomic species   valence    mass     pseudopotential
        Al             3.00    26.98200     Al( 1.00)
        N              5.00    14.00700     N ( 1.00)

     48 Sym. Ops., with inversion, found



   Cartesian axes

     site n.     atom                  positions (alat units)
         1           Al  tau(   1) = (   0.0000000   0.0000000   0.0000000  )
         2           N   tau(   2) = (  -0.7071068   0.7071068   0.7071068  )

     number of k points=   145  Gaussian smearing, width (Ry)=  0.0050

     Number of k-points >= 100: set verbosity='high' to print them.

     Dense  grid:    13323 G-vectors     FFT dimensions: (  36,  36,  36)

     Estimated max dynamical RAM per process >      25.60 MB

     Estimated total dynamical RAM >      99.13 MB

     Initial potential from superposition of free atoms

     starting charge       7.9977, renormalised to       8.0000
     Starting wfcs are    8 randomized atomic wfcs
     Checking if some PAW data can be deallocated... 

     total cpu time spent up to now is        0.5 secs

     Self-consistent Calculation

     iteration #  1     ecut=    90.00 Ry     beta= 0.20
     Davidson diagonalization with overlap
     ethr =  1.00E-02,  avg # of iterations =  4.1

     total cpu time spent up to now is        1.4 secs

     total energy              =     -67.96461931 Ry
     estimated scf accuracy    <       0.41872659 Ry

     iteration #  2     ecut=    90.00 Ry     beta= 0.20
     Davidson diagonalization with overlap
     ethr =  5.23E-03,  avg # of iterations =  1.0

     total cpu time spent up to now is        1.9 secs

     total energy              =     -67.86445146 Ry
     estimated scf accuracy    <       0.23095502 Ry

     iteration #  3     ecut=    90.00 Ry     beta= 0.20
     Davidson diagonalization with overlap
     ethr =  2.89E-03,  avg # of iterations =  1.7

     total cpu time spent up to now is        2.5 secs

     total energy              =     -67.90312457 Ry
     estimated scf accuracy    <       0.00698974 Ry

     iteration #  4     ecut=    90.00 Ry     beta= 0.20
     Davidson diagonalization with overlap
     ethr =  8.74E-05,  avg # of iterations =  2.1

     total cpu time spent up to now is        3.1 secs

     total energy              =     -67.90312191 Ry
     estimated scf accuracy    <       0.00167418 Ry

     iteration #  5     ecut=    90.00 Ry     beta= 0.20
     Davidson diagonalization with overlap
     ethr =  2.09E-05,  avg # of iterations =  1.6

     total cpu time spent up to now is        3.7 secs

     total energy              =     -67.90333549 Ry
     estimated scf accuracy    <       0.00000858 Ry

     iteration #  6     ecut=    90.00 Ry     beta= 0.20
     Davidson diagonalization with overlap
     ethr =  1.07E-07,  avg # of iterations =  3.6

     total cpu time spent up to now is        4.4 secs

     total energy              =     -67.90329595 Ry
     estimated scf accuracy    <       0.00010117 Ry

     iteration #  7     ecut=    90.00 Ry     beta= 0.20
     Davidson diagonalization with overlap
     ethr =  1.07E-07,  avg # of iterations =  2.4

     total cpu time spent up to now is        5.1 secs

     total energy              =     -67.90331799 Ry
     estimated scf accuracy    <       0.00000354 Ry

     iteration #  8     ecut=    90.00 Ry     beta= 0.20
     Davidson diagonalization with overlap
     ethr =  4.43E-08,  avg # of iterations =  2.0

     total cpu time spent up to now is        5.7 secs

     total energy              =     -67.90331885 Ry
     estimated scf accuracy    <       0.00000027 Ry

     iteration #  9     ecut=    90.00 Ry     beta= 0.20
     Davidson diagonalization with overlap
     ethr =  3.41E-09,  avg # of iterations =  1.2

     total cpu time spent up to now is        6.2 secs

     total energy              =     -67.90331884 Ry
     estimated scf accuracy    <       0.00000007 Ry

     iteration # 10     ecut=    90.00 Ry     beta= 0.20
     Davidson diagonalization with overlap
     ethr =  8.49E-10,  avg # of iterations =  1.2

     total cpu time spent up to now is        6.8 secs

     End of self-consistent calculation

     Number of k-points >= 100: set verbosity='high' to print the bands.

     the Fermi energy is    12.9199 ev

!    total energy              =     -67.90331884 Ry
     total all-electron energy =      -595.344897 Ry
     estimated scf accuracy    <          6.1E-09 Ry
     smearing contrib. (-TS)   =      -0.00000000 Ry
     internal energy E=F+TS    =     -67.90331884 Ry

     The total energy is F=E-TS. E is the sum of the following terms:
     one-electron contribution =       3.32972528 Ry
     hartree contribution      =       4.56031360 Ry
     xc contribution           =      -8.64064088 Ry
     ewald contribution        =     -24.51862769 Ry
     one-center paw contrib.   =     -42.63408914 Ry

     convergence has been achieved in  10 iterations

     Forces acting on atoms (cartesian axes, Ry/au):

     atom    1 type  1   force =     0.00000000    0.00000000   -0.00000000
     atom    2 type  2   force =    -0.00000000   -0.00000000    0.00000000

     Total force =     0.000000     Total SCF correction =     0.000000


     Computing stress (Cartesian axis) and pressure

          total   stress  (Ry/bohr**3)                   (kbar)     P=        6.18
   0.00004203  -0.00000000   0.00000000            6.18       -0.00        0.00
  -0.00000000   0.00004203   0.00000000           -0.00        6.18        0.00
   0.00000000   0.00000000   0.00004203            0.00        0.00        6.18


     Writing all to output data dir ../output/AlN.save/
 
     init_run     :      0.39s CPU      0.41s WALL (       1 calls)
     electrons    :      6.04s CPU      6.25s WALL (       1 calls)
     forces       :      0.08s CPU      0.08s WALL (       1 calls)
     stress       :      0.28s CPU      0.28s WALL (       1 calls)

     Called by init_run:
     wfcinit      :      0.18s CPU      0.19s WALL (       1 calls)
     potinit      :      0.06s CPU      0.06s WALL (       1 calls)
     hinit0       :      0.12s CPU      0.12s WALL (       1 calls)

     Called by electrons:
     c_bands      :      4.45s CPU      4.57s WALL (      10 calls)
     sum_band     :      0.92s CPU      0.97s WALL (      10 calls)
     v_of_rho     :      0.07s CPU      0.07s WALL (      11 calls)
     newd         :      0.08s CPU      0.11s WALL (      11 calls)
     PAW_pot      :      0.52s CPU      0.52s WALL (      11 calls)
     mix_rho      :      0.05s CPU      0.06s WALL (      10 calls)

     Called by c_bands:
     init_us_2    :      0.24s CPU      0.25s WALL (    1679 calls)
     init_us_2:cp :      0.24s CPU      0.25s WALL (    1679 calls)
     cegterg      :      3.70s CPU      3.80s WALL (     730 calls)

     Called by *egterg:
     cdiaghg      :      0.15s CPU      0.16s WALL (    2322 calls)
     h_psi        :      3.35s CPU      3.43s WALL (    2395 calls)
     s_psi        :      0.05s CPU      0.05s WALL (    2395 calls)
     g_psi        :      0.02s CPU      0.02s WALL (    1592 calls)

     Called by h_psi:
     h_psi:calbec :      0.11s CPU      0.11s WALL (    2395 calls)
     vloc_psi     :      3.15s CPU      3.24s WALL (    2395 calls)
     add_vuspsi   :      0.06s CPU      0.06s WALL (    2395 calls)

     General routines
     calbec       :      0.15s CPU      0.15s WALL (    3490 calls)
     fft          :      0.03s CPU      0.03s WALL (     146 calls)
     ffts         :      0.03s CPU      0.03s WALL (     177 calls)
     fftw         :      3.29s CPU      3.38s WALL (   34876 calls)
 
     Parallel routines
 
     PWSCF        :      6.95s CPU      7.40s WALL

 
   This run was terminated on:  11:39:23  28Apr2026            

=------------------------------------------------------------------------------=
   JOB DONE.
=------------------------------------------------------------------------------=
