
     Program PWSCF v.7.1 starts on 28Apr2026 at 11:39:28 

     This program is part of the open-source Quantum ESPRESSO suite
     for quantum simulation of materials; please cite
         "P. Giannozzi et al., J. Phys.:Condens. Matter 21 395502 (2009);
         "P. Giannozzi et al., J. Phys.:Condens. Matter 29 465901 (2017);
         "P. Giannozzi et al., J. Chem. Phys. 152 154105 (2020);
          URL http://www.quantum-espresso.org", 
     in publications or presentations arising from this work. More details at
     http://www.quantum-espresso.org/quote

     Parallel version (MPI & OpenMP), running on       4 processor cores
     Number of MPI processes:                 4
     Threads/MPI process:                     1

     MPI processes distributed on     1 nodes
     380685 MiB available memory on the printing compute node when the environment starts
 
     Reading input from AlN_cutoff100.in

     Current dimensions of program PWSCF are:
     Max number of different atomic species (ntypx) = 10
     Max number of k-points (npk) = 150000
     Max angular momentum in pseudopotentials (lmaxx) =  4
     file Al.pbe-n-kjpaw_psl.1.0.0.UPF: wavefunction(s)  3S 3P renormalized
     file N.pbe-n-kjpaw_psl.1.0.0.UPF: wavefunction(s)  2S renormalized
     Message from routine setup:
     using ibrav=0 with symmetry is DISCOURAGED, use correct ibrav instead
 
     K-points division:     npool     =       2
     R & G space division:  proc/nbgrp/npool/nimage =       2
     Subspace diagonalization in iterative solution of the eigenvalue problem:
     a serial algorithm will be used

 
     Parallelization info
     --------------------
     sticks:   dense  smooth     PW     G-vecs:    dense   smooth      PW
     Min         408     408    126                 7676     7676    1341
     Max         409     409    127                 7677     7677    1344
     Sum         817     817    253                15353    15353    2685
 
     Using Slab Decomposition
 


     bravais-lattice index     =            0
     lattice parameter (alat)  =       5.4385  a.u.
     unit-cell volume          =     113.7417 (a.u.)^3
     number of atoms/cell      =            2
     number of atomic types    =            2
     number of electrons       =         8.00
     number of Kohn-Sham states=            8
     kinetic-energy cutoff     =     100.0000  Ry
     charge density cutoff     =     400.0000  Ry
     scf convergence threshold =      1.0E-08
     mixing beta               =       0.2000
     number of iterations used =            8  local-TF  mixing
     Exchange-correlation= SLA  PW   PBX  PBC
                           (   1   4   3   4   0   0   0)

     celldm(1)=   5.438489  celldm(2)=   0.000000  celldm(3)=   0.000000
     celldm(4)=   0.000000  celldm(5)=   0.000000  celldm(6)=   0.000000

     crystal axes: (cart. coord. in units of alat)
               a(1) = (  -0.707107   0.000000   0.707107 )  
               a(2) = (   0.000000   0.707107   0.707107 )  
               a(3) = (  -0.707107   0.707107   0.000000 )  

     reciprocal axes: (cart. coord. in units 2 pi/alat)
               b(1) = ( -0.707107 -0.707107  0.707107 )  
               b(2) = (  0.707107  0.707107  0.707107 )  
               b(3) = ( -0.707107  0.707107 -0.707107 )  


     PseudoPot. # 1 for Al read from file:
     ../../pseudo/Al.pbe-n-kjpaw_psl.1.0.0.UPF
     MD5 check sum: 502b6b27b9c6270cab5dd1084b96fa6d
     Pseudo is Projector augmented-wave + core cor, Zval =  3.0
     Generated using &quot;atomic&quot; code by A. Dal Corso  v.6.3
     Shape of augmentation charge: PSQ
     Using radial grid of 1135 points,  6 beta functions with: 
                l(1) =   0
                l(2) =   0
                l(3) =   1
                l(4) =   1
                l(5) =   2
                l(6) =   2
     Q(r) pseudized with 0 coefficients 


     PseudoPot. # 2 for N  read from file:
     ../../pseudo/N.pbe-n-kjpaw_psl.1.0.0.UPF
     MD5 check sum: 14c48229446f9f2d411169a3abcbc3fa
     Pseudo is Projector augmented-wave + core cor, Zval =  5.0
     Generated using &quot;atomic&quot; code by A. Dal Corso  v.6.3
     Shape of augmentation charge: PSQ
     Using radial grid of 1085 points,  4 beta functions with: 
                l(1) =   0
                l(2) =   0
                l(3) =   1
                l(4) =   1
     Q(r) pseudized with 0 coefficients 


     atomic species   valence    mass     pseudopotential
        Al             3.00    26.98200     Al( 1.00)
        N              5.00    14.00700     N ( 1.00)

     48 Sym. Ops., with inversion, found



   Cartesian axes

     site n.     atom                  positions (alat units)
         1           Al  tau(   1) = (   0.0000000   0.0000000   0.0000000  )
         2           N   tau(   2) = (  -0.7071068   0.7071068   0.7071068  )

     number of k points=   145  Gaussian smearing, width (Ry)=  0.0050

     Number of k-points >= 100: set verbosity='high' to print them.

     Dense  grid:    15353 G-vectors     FFT dimensions: (  36,  36,  36)

     Estimated max dynamical RAM per process >      29.09 MB

     Estimated total dynamical RAM >     112.62 MB

     Initial potential from superposition of free atoms

     starting charge       7.9977, renormalised to       8.0000
     Starting wfcs are    8 randomized atomic wfcs
     Checking if some PAW data can be deallocated... 

     total cpu time spent up to now is        0.6 secs

     Self-consistent Calculation

     iteration #  1     ecut=   100.00 Ry     beta= 0.20
     Davidson diagonalization with overlap
     ethr =  1.00E-02,  avg # of iterations =  4.1

     total cpu time spent up to now is        1.4 secs

     total energy              =     -67.96460573 Ry
     estimated scf accuracy    <       0.41876377 Ry

     iteration #  2     ecut=   100.00 Ry     beta= 0.20
     Davidson diagonalization with overlap
     ethr =  5.23E-03,  avg # of iterations =  1.0

     total cpu time spent up to now is        2.0 secs

     total energy              =     -67.86440434 Ry
     estimated scf accuracy    <       0.23101246 Ry

     iteration #  3     ecut=   100.00 Ry     beta= 0.20
     Davidson diagonalization with overlap
     ethr =  2.89E-03,  avg # of iterations =  1.7

     total cpu time spent up to now is        2.6 secs

     total energy              =     -67.90313186 Ry
     estimated scf accuracy    <       0.00698450 Ry

     iteration #  4     ecut=   100.00 Ry     beta= 0.20
     Davidson diagonalization with overlap
     ethr =  8.73E-05,  avg # of iterations =  2.1

     total cpu time spent up to now is        3.3 secs

     total energy              =     -67.90313517 Ry
     estimated scf accuracy    <       0.00164657 Ry

     iteration #  5     ecut=   100.00 Ry     beta= 0.20
     Davidson diagonalization with overlap
     ethr =  2.06E-05,  avg # of iterations =  1.6

     total cpu time spent up to now is        3.9 secs

     total energy              =     -67.90334032 Ry
     estimated scf accuracy    <       0.00000910 Ry

     iteration #  6     ecut=   100.00 Ry     beta= 0.20
     Davidson diagonalization with overlap
     ethr =  1.14E-07,  avg # of iterations =  3.7

     total cpu time spent up to now is        4.7 secs

     total energy              =     -67.90329977 Ry
     estimated scf accuracy    <       0.00010666 Ry

     iteration #  7     ecut=   100.00 Ry     beta= 0.20
     Davidson diagonalization with overlap
     ethr =  1.14E-07,  avg # of iterations =  2.4

     total cpu time spent up to now is        5.4 secs

     total energy              =     -67.90332307 Ry
     estimated scf accuracy    <       0.00000363 Ry

     iteration #  8     ecut=   100.00 Ry     beta= 0.20
     Davidson diagonalization with overlap
     ethr =  4.54E-08,  avg # of iterations =  2.0

     total cpu time spent up to now is        6.1 secs

     total energy              =     -67.90332395 Ry
     estimated scf accuracy    <       0.00000027 Ry

     iteration #  9     ecut=   100.00 Ry     beta= 0.20
     Davidson diagonalization with overlap
     ethr =  3.38E-09,  avg # of iterations =  1.2

     total cpu time spent up to now is        6.6 secs

     total energy              =     -67.90332393 Ry
     estimated scf accuracy    <       0.00000007 Ry

     iteration # 10     ecut=   100.00 Ry     beta= 0.20
     Davidson diagonalization with overlap
     ethr =  8.79E-10,  avg # of iterations =  1.2

     total cpu time spent up to now is        7.2 secs

     End of self-consistent calculation

     Number of k-points >= 100: set verbosity='high' to print the bands.

     the Fermi energy is    12.9199 ev

!    total energy              =     -67.90332393 Ry
     total all-electron energy =      -595.344902 Ry
     estimated scf accuracy    <          5.3E-09 Ry
     smearing contrib. (-TS)   =      -0.00000000 Ry
     internal energy E=F+TS    =     -67.90332393 Ry

     The total energy is F=E-TS. E is the sum of the following terms:
     one-electron contribution =       3.32974111 Ry
     hartree contribution      =       4.56029783 Ry
     xc contribution           =      -8.64064426 Ry
     ewald contribution        =     -24.51862769 Ry
     one-center paw contrib.   =     -42.63409093 Ry

     convergence has been achieved in  10 iterations

     Forces acting on atoms (cartesian axes, Ry/au):

     atom    1 type  1   force =    -0.00000000    0.00000000   -0.00000000
     atom    2 type  2   force =     0.00000000   -0.00000000    0.00000000

     Total force =     0.000000     Total SCF correction =     0.000000


     Computing stress (Cartesian axis) and pressure

          total   stress  (Ry/bohr**3)                   (kbar)     P=        6.09
   0.00004139   0.00000000  -0.00000000            6.09        0.00       -0.00
  -0.00000000   0.00004139   0.00000000           -0.00        6.09        0.00
   0.00000000   0.00000000   0.00004139            0.00        0.00        6.09


     Writing all to output data dir ../output/AlN.save/
 
     init_run     :      0.42s CPU      0.44s WALL (       1 calls)
     electrons    :      6.46s CPU      6.68s WALL (       1 calls)
     forces       :      0.09s CPU      0.09s WALL (       1 calls)
     stress       :      0.33s CPU      0.33s WALL (       1 calls)

     Called by init_run:
     wfcinit      :      0.18s CPU      0.19s WALL (       1 calls)
     potinit      :      0.06s CPU      0.06s WALL (       1 calls)
     hinit0       :      0.13s CPU      0.13s WALL (       1 calls)

     Called by electrons:
     c_bands      :      4.80s CPU      4.93s WALL (      10 calls)
     sum_band     :      0.97s CPU      1.03s WALL (      10 calls)
     v_of_rho     :      0.07s CPU      0.07s WALL (      11 calls)
     newd         :      0.09s CPU      0.12s WALL (      11 calls)
     PAW_pot      :      0.52s CPU      0.53s WALL (      11 calls)
     mix_rho      :      0.06s CPU      0.06s WALL (      10 calls)

     Called by c_bands:
     init_us_2    :      0.28s CPU      0.29s WALL (    1679 calls)
     init_us_2:cp :      0.28s CPU      0.29s WALL (    1679 calls)
     cegterg      :      3.89s CPU      3.99s WALL (     730 calls)

     Called by *egterg:
     cdiaghg      :      0.15s CPU      0.16s WALL (    2318 calls)
     h_psi        :      3.46s CPU      3.54s WALL (    2391 calls)
     s_psi        :      0.07s CPU      0.07s WALL (    2391 calls)
     g_psi        :      0.03s CPU      0.03s WALL (    1588 calls)

     Called by h_psi:
     h_psi:calbec :      0.12s CPU      0.12s WALL (    2391 calls)
     vloc_psi     :      3.24s CPU      3.32s WALL (    2391 calls)
     add_vuspsi   :      0.07s CPU      0.08s WALL (    2391 calls)

     General routines
     calbec       :      0.16s CPU      0.17s WALL (    3486 calls)
     fft          :      0.03s CPU      0.03s WALL (     146 calls)
     ffts         :      0.03s CPU      0.03s WALL (     177 calls)
     fftw         :      3.39s CPU      3.47s WALL (   34876 calls)
 
     Parallel routines
 
     PWSCF        :      7.46s CPU      7.96s WALL

 
   This run was terminated on:  11:39:36  28Apr2026            

=------------------------------------------------------------------------------=
   JOB DONE.
=------------------------------------------------------------------------------=
