
     Program PWSCF v.7.1 starts on 28Apr2026 at 11:38:48 

     This program is part of the open-source Quantum ESPRESSO suite
     for quantum simulation of materials; please cite
         "P. Giannozzi et al., J. Phys.:Condens. Matter 21 395502 (2009);
         "P. Giannozzi et al., J. Phys.:Condens. Matter 29 465901 (2017);
         "P. Giannozzi et al., J. Chem. Phys. 152 154105 (2020);
          URL http://www.quantum-espresso.org", 
     in publications or presentations arising from this work. More details at
     http://www.quantum-espresso.org/quote

     Parallel version (MPI & OpenMP), running on       4 processor cores
     Number of MPI processes:                 4
     Threads/MPI process:                     1

     MPI processes distributed on     1 nodes
     380673 MiB available memory on the printing compute node when the environment starts
 
     Reading input from AlN_cutoff60.in

     Current dimensions of program PWSCF are:
     Max number of different atomic species (ntypx) = 10
     Max number of k-points (npk) = 150000
     Max angular momentum in pseudopotentials (lmaxx) =  4
     file Al.pbe-n-kjpaw_psl.1.0.0.UPF: wavefunction(s)  3S 3P renormalized
     file N.pbe-n-kjpaw_psl.1.0.0.UPF: wavefunction(s)  2S renormalized
     Message from routine setup:
     using ibrav=0 with symmetry is DISCOURAGED, use correct ibrav instead
 
     K-points division:     npool     =       2
     R & G space division:  proc/nbgrp/npool/nimage =       2
     Subspace diagonalization in iterative solution of the eigenvalue problem:
     a serial algorithm will be used

 
     Parallelization info
     --------------------
     sticks:   dense  smooth     PW     G-vecs:    dense   smooth      PW
     Min         249     249     81                 3559     3559     681
     Max         250     250     82                 3560     3560     682
     Sum         499     499    163                 7119     7119    1363
 
     Using Slab Decomposition
 


     bravais-lattice index     =            0
     lattice parameter (alat)  =       5.4385  a.u.
     unit-cell volume          =     113.7417 (a.u.)^3
     number of atoms/cell      =            2
     number of atomic types    =            2
     number of electrons       =         8.00
     number of Kohn-Sham states=            8
     kinetic-energy cutoff     =      60.0000  Ry
     charge density cutoff     =     240.0000  Ry
     scf convergence threshold =      1.0E-08
     mixing beta               =       0.2000
     number of iterations used =            8  local-TF  mixing
     Exchange-correlation= SLA  PW   PBX  PBC
                           (   1   4   3   4   0   0   0)

     celldm(1)=   5.438489  celldm(2)=   0.000000  celldm(3)=   0.000000
     celldm(4)=   0.000000  celldm(5)=   0.000000  celldm(6)=   0.000000

     crystal axes: (cart. coord. in units of alat)
               a(1) = (  -0.707107   0.000000   0.707107 )  
               a(2) = (   0.000000   0.707107   0.707107 )  
               a(3) = (  -0.707107   0.707107   0.000000 )  

     reciprocal axes: (cart. coord. in units 2 pi/alat)
               b(1) = ( -0.707107 -0.707107  0.707107 )  
               b(2) = (  0.707107  0.707107  0.707107 )  
               b(3) = ( -0.707107  0.707107 -0.707107 )  


     PseudoPot. # 1 for Al read from file:
     ../../pseudo/Al.pbe-n-kjpaw_psl.1.0.0.UPF
     MD5 check sum: 502b6b27b9c6270cab5dd1084b96fa6d
     Pseudo is Projector augmented-wave + core cor, Zval =  3.0
     Generated using &quot;atomic&quot; code by A. Dal Corso  v.6.3
     Shape of augmentation charge: PSQ
     Using radial grid of 1135 points,  6 beta functions with: 
                l(1) =   0
                l(2) =   0
                l(3) =   1
                l(4) =   1
                l(5) =   2
                l(6) =   2
     Q(r) pseudized with 0 coefficients 


     PseudoPot. # 2 for N  read from file:
     ../../pseudo/N.pbe-n-kjpaw_psl.1.0.0.UPF
     MD5 check sum: 14c48229446f9f2d411169a3abcbc3fa
     Pseudo is Projector augmented-wave + core cor, Zval =  5.0
     Generated using &quot;atomic&quot; code by A. Dal Corso  v.6.3
     Shape of augmentation charge: PSQ
     Using radial grid of 1085 points,  4 beta functions with: 
                l(1) =   0
                l(2) =   0
                l(3) =   1
                l(4) =   1
     Q(r) pseudized with 0 coefficients 


     atomic species   valence    mass     pseudopotential
        Al             3.00    26.98200     Al( 1.00)
        N              5.00    14.00700     N ( 1.00)

     48 Sym. Ops., with inversion, found



   Cartesian axes

     site n.     atom                  positions (alat units)
         1           Al  tau(   1) = (   0.0000000   0.0000000   0.0000000  )
         2           N   tau(   2) = (  -0.7071068   0.7071068   0.7071068  )

     number of k points=   145  Gaussian smearing, width (Ry)=  0.0050

     Number of k-points >= 100: set verbosity='high' to print them.

     Dense  grid:     7119 G-vectors     FFT dimensions: (  27,  27,  27)

     Estimated max dynamical RAM per process >      14.46 MB

     Estimated total dynamical RAM >      56.09 MB

     Check: negative core charge=   -0.000005

     Initial potential from superposition of free atoms

     starting charge       7.9977, renormalised to       8.0000
     Starting wfcs are    8 randomized atomic wfcs
     Checking if some PAW data can be deallocated... 

     total cpu time spent up to now is        0.4 secs

     Self-consistent Calculation

     iteration #  1     ecut=    60.00 Ry     beta= 0.20
     Davidson diagonalization with overlap
     ethr =  1.00E-02,  avg # of iterations =  4.0

     total cpu time spent up to now is        0.9 secs

     total energy              =     -67.96403058 Ry
     estimated scf accuracy    <       0.41813515 Ry

     iteration #  2     ecut=    60.00 Ry     beta= 0.20
     Davidson diagonalization with overlap
     ethr =  5.23E-03,  avg # of iterations =  1.0

     total cpu time spent up to now is        1.2 secs

     total energy              =     -67.86395860 Ry
     estimated scf accuracy    <       0.23062315 Ry

     iteration #  3     ecut=    60.00 Ry     beta= 0.20
     Davidson diagonalization with overlap
     ethr =  2.88E-03,  avg # of iterations =  1.7

     total cpu time spent up to now is        1.6 secs

     total energy              =     -67.90254096 Ry
     estimated scf accuracy    <       0.00699394 Ry

     iteration #  4     ecut=    60.00 Ry     beta= 0.20
     Davidson diagonalization with overlap
     ethr =  8.74E-05,  avg # of iterations =  2.1

     total cpu time spent up to now is        2.0 secs

     total energy              =     -67.90252700 Ry
     estimated scf accuracy    <       0.00166160 Ry

     iteration #  5     ecut=    60.00 Ry     beta= 0.20
     Davidson diagonalization with overlap
     ethr =  2.08E-05,  avg # of iterations =  1.7

     total cpu time spent up to now is        2.4 secs

     total energy              =     -67.90274468 Ry
     estimated scf accuracy    <       0.00000839 Ry

     iteration #  6     ecut=    60.00 Ry     beta= 0.20
     Davidson diagonalization with overlap
     ethr =  1.05E-07,  avg # of iterations =  3.5

     total cpu time spent up to now is        2.8 secs

     total energy              =     -67.90270400 Ry
     estimated scf accuracy    <       0.00010258 Ry

     iteration #  7     ecut=    60.00 Ry     beta= 0.20
     Davidson diagonalization with overlap
     ethr =  1.05E-07,  avg # of iterations =  2.4

     total cpu time spent up to now is        3.2 secs

     total energy              =     -67.90272639 Ry
     estimated scf accuracy    <       0.00000323 Ry

     iteration #  8     ecut=    60.00 Ry     beta= 0.20
     Davidson diagonalization with overlap
     ethr =  4.04E-08,  avg # of iterations =  2.0

     total cpu time spent up to now is        3.6 secs

     total energy              =     -67.90272717 Ry
     estimated scf accuracy    <       0.00000025 Ry

     iteration #  9     ecut=    60.00 Ry     beta= 0.20
     Davidson diagonalization with overlap
     ethr =  3.10E-09,  avg # of iterations =  1.2

     total cpu time spent up to now is        4.0 secs

     total energy              =     -67.90272715 Ry
     estimated scf accuracy    <       0.00000007 Ry

     iteration # 10     ecut=    60.00 Ry     beta= 0.20
     Davidson diagonalization with overlap
     ethr =  9.01E-10,  avg # of iterations =  1.1

     total cpu time spent up to now is        4.3 secs

     End of self-consistent calculation

     Number of k-points >= 100: set verbosity='high' to print the bands.

     the Fermi energy is    12.9201 ev

!    total energy              =     -67.90272715 Ry
     total all-electron energy =      -595.344306 Ry
     estimated scf accuracy    <          6.5E-09 Ry
     smearing contrib. (-TS)   =      -0.00000000 Ry
     internal energy E=F+TS    =     -67.90272715 Ry

     The total energy is F=E-TS. E is the sum of the following terms:
     one-electron contribution =       3.33085334 Ry
     hartree contribution      =       4.55966559 Ry
     xc contribution           =      -8.64069119 Ry
     ewald contribution        =     -24.51862769 Ry
     one-center paw contrib.   =     -42.63392720 Ry

     convergence has been achieved in  10 iterations

     Forces acting on atoms (cartesian axes, Ry/au):

     atom    1 type  1   force =    -0.00000000    0.00000000   -0.00000000
     atom    2 type  2   force =    -0.00000000    0.00000000   -0.00000000

     Total force =     0.000000     Total SCF correction =     0.000000


     Computing stress (Cartesian axis) and pressure

          total   stress  (Ry/bohr**3)                   (kbar)     P=        4.15
   0.00002823   0.00000000  -0.00000000            4.15        0.00       -0.00
   0.00000000   0.00002823  -0.00000000            0.00        4.15       -0.00
   0.00000000  -0.00000000   0.00002823            0.00       -0.00        4.15


     Writing all to output data dir ../output/AlN.save/
 
     init_run     :      0.26s CPU      0.28s WALL (       1 calls)
     electrons    :      3.74s CPU      3.92s WALL (       1 calls)
     forces       :      0.05s CPU      0.05s WALL (       1 calls)
     stress       :      0.16s CPU      0.16s WALL (       1 calls)

     Called by init_run:
     wfcinit      :      0.10s CPU      0.11s WALL (       1 calls)
     potinit      :      0.05s CPU      0.05s WALL (       1 calls)
     hinit0       :      0.10s CPU      0.10s WALL (       1 calls)

     Called by electrons:
     c_bands      :      2.63s CPU      2.76s WALL (      10 calls)
     sum_band     :      0.53s CPU      0.56s WALL (      10 calls)
     v_of_rho     :      0.03s CPU      0.03s WALL (      11 calls)
     newd         :      0.06s CPU      0.06s WALL (      11 calls)
     PAW_pot      :      0.51s CPU      0.52s WALL (      11 calls)
     mix_rho      :      0.03s CPU      0.03s WALL (      10 calls)

     Called by c_bands:
     init_us_2    :      0.14s CPU      0.14s WALL (    1679 calls)
     init_us_2:cp :      0.13s CPU      0.14s WALL (    1679 calls)
     cegterg      :      2.21s CPU      2.31s WALL (     730 calls)

     Called by *egterg:
     cdiaghg      :      0.15s CPU      0.16s WALL (    2309 calls)
     h_psi        :      1.90s CPU      1.99s WALL (    2382 calls)
     s_psi        :      0.03s CPU      0.04s WALL (    2382 calls)
     g_psi        :      0.01s CPU      0.01s WALL (    1579 calls)

     Called by h_psi:
     h_psi:calbec :      0.06s CPU      0.07s WALL (    2382 calls)
     vloc_psi     :      1.78s CPU      1.86s WALL (    2382 calls)
     add_vuspsi   :      0.04s CPU      0.04s WALL (    2382 calls)

     General routines
     calbec       :      0.08s CPU      0.09s WALL (    3477 calls)
     fft          :      0.02s CPU      0.02s WALL (     146 calls)
     ffts         :      0.01s CPU      0.02s WALL (     173 calls)
     fftw         :      1.88s CPU      1.97s WALL (   34874 calls)
 
     Parallel routines
 
     PWSCF        :      4.36s CPU      4.71s WALL

 
   This run was terminated on:  11:38:52  28Apr2026            

=------------------------------------------------------------------------------=
   JOB DONE.
=------------------------------------------------------------------------------=
