
     Program PWSCF v.7.1 starts on 28Apr2026 at 11:41:51 

     This program is part of the open-source Quantum ESPRESSO suite
     for quantum simulation of materials; please cite
         "P. Giannozzi et al., J. Phys.:Condens. Matter 21 395502 (2009);
         "P. Giannozzi et al., J. Phys.:Condens. Matter 29 465901 (2017);
         "P. Giannozzi et al., J. Chem. Phys. 152 154105 (2020);
          URL http://www.quantum-espresso.org", 
     in publications or presentations arising from this work. More details at
     http://www.quantum-espresso.org/quote

     Parallel version (MPI & OpenMP), running on       4 processor cores
     Number of MPI processes:                 4
     Threads/MPI process:                     1

     MPI processes distributed on     1 nodes
     381630 MiB available memory on the printing compute node when the environment starts
 
     Reading input from AlN_cutoff400.in

     Current dimensions of program PWSCF are:
     Max number of different atomic species (ntypx) = 10
     Max number of k-points (npk) = 150000
     Max angular momentum in pseudopotentials (lmaxx) =  4
     file Al.pbe-n-kjpaw_psl.1.0.0.UPF: wavefunction(s)  3S 3P renormalized
     file N.pbe-n-kjpaw_psl.1.0.0.UPF: wavefunction(s)  2S renormalized
     Message from routine setup:
     using ibrav=0 with symmetry is DISCOURAGED, use correct ibrav instead
 
     K-points division:     npool     =       2
     R & G space division:  proc/nbgrp/npool/nimage =       2
     Subspace diagonalization in iterative solution of the eigenvalue problem:
     a serial algorithm will be used

 
     Parallelization info
     --------------------
     sticks:   dense  smooth     PW     G-vecs:    dense   smooth      PW
     Min        1626    1626    456                61436    61436    9025
     Max        1627    1627    457                61441    61441    9028
     Sum        3253    3253    913               122877   122877   18053
 
     Using Slab Decomposition
 


     bravais-lattice index     =            0
     lattice parameter (alat)  =       5.4385  a.u.
     unit-cell volume          =     113.7417 (a.u.)^3
     number of atoms/cell      =            2
     number of atomic types    =            2
     number of electrons       =         8.00
     number of Kohn-Sham states=            8
     kinetic-energy cutoff     =     400.0000  Ry
     charge density cutoff     =    1600.0000  Ry
     scf convergence threshold =      1.0E-08
     mixing beta               =       0.2000
     number of iterations used =            8  local-TF  mixing
     Exchange-correlation= SLA  PW   PBX  PBC
                           (   1   4   3   4   0   0   0)

     celldm(1)=   5.438489  celldm(2)=   0.000000  celldm(3)=   0.000000
     celldm(4)=   0.000000  celldm(5)=   0.000000  celldm(6)=   0.000000

     crystal axes: (cart. coord. in units of alat)
               a(1) = (  -0.707107   0.000000   0.707107 )  
               a(2) = (   0.000000   0.707107   0.707107 )  
               a(3) = (  -0.707107   0.707107   0.000000 )  

     reciprocal axes: (cart. coord. in units 2 pi/alat)
               b(1) = ( -0.707107 -0.707107  0.707107 )  
               b(2) = (  0.707107  0.707107  0.707107 )  
               b(3) = ( -0.707107  0.707107 -0.707107 )  


     PseudoPot. # 1 for Al read from file:
     ../../pseudo/Al.pbe-n-kjpaw_psl.1.0.0.UPF
     MD5 check sum: 502b6b27b9c6270cab5dd1084b96fa6d
     Pseudo is Projector augmented-wave + core cor, Zval =  3.0
     Generated using &quot;atomic&quot; code by A. Dal Corso  v.6.3
     Shape of augmentation charge: PSQ
     Using radial grid of 1135 points,  6 beta functions with: 
                l(1) =   0
                l(2) =   0
                l(3) =   1
                l(4) =   1
                l(5) =   2
                l(6) =   2
     Q(r) pseudized with 0 coefficients 


     PseudoPot. # 2 for N  read from file:
     ../../pseudo/N.pbe-n-kjpaw_psl.1.0.0.UPF
     MD5 check sum: 14c48229446f9f2d411169a3abcbc3fa
     Pseudo is Projector augmented-wave + core cor, Zval =  5.0
     Generated using &quot;atomic&quot; code by A. Dal Corso  v.6.3
     Shape of augmentation charge: PSQ
     Using radial grid of 1085 points,  4 beta functions with: 
                l(1) =   0
                l(2) =   0
                l(3) =   1
                l(4) =   1
     Q(r) pseudized with 0 coefficients 


     atomic species   valence    mass     pseudopotential
        Al             3.00    26.98200     Al( 1.00)
        N              5.00    14.00700     N ( 1.00)

     48 Sym. Ops., with inversion, found



   Cartesian axes

     site n.     atom                  positions (alat units)
         1           Al  tau(   1) = (   0.0000000   0.0000000   0.0000000  )
         2           N   tau(   2) = (  -0.7071068   0.7071068   0.7071068  )

     number of k points=   145  Gaussian smearing, width (Ry)=  0.0050

     Number of k-points >= 100: set verbosity='high' to print them.

     Dense  grid:   122877 G-vectors     FFT dimensions: (  72,  72,  72)

     Estimated max dynamical RAM per process >     213.56 MB

     Estimated total dynamical RAM >     824.22 MB

     Initial potential from superposition of free atoms

     starting charge       7.9977, renormalised to       8.0000
     Starting wfcs are    8 randomized atomic wfcs
     Checking if some PAW data can be deallocated... 

     total cpu time spent up to now is        2.8 secs

     Self-consistent Calculation

     iteration #  1     ecut=   400.00 Ry     beta= 0.20
     Davidson diagonalization with overlap
     ethr =  1.00E-02,  avg # of iterations =  4.3

     total cpu time spent up to now is       11.2 secs

     total energy              =     -67.96459563 Ry
     estimated scf accuracy    <       0.41917655 Ry

     iteration #  2     ecut=   400.00 Ry     beta= 0.20
     Davidson diagonalization with overlap
     ethr =  5.24E-03,  avg # of iterations =  1.0

     total cpu time spent up to now is       16.6 secs

     total energy              =     -67.86450058 Ry
     estimated scf accuracy    <       0.23107913 Ry

     iteration #  3     ecut=   400.00 Ry     beta= 0.20
     Davidson diagonalization with overlap
     ethr =  2.89E-03,  avg # of iterations =  1.7

     total cpu time spent up to now is       22.3 secs

     total energy              =     -67.90320378 Ry
     estimated scf accuracy    <       0.00699598 Ry

     iteration #  4     ecut=   400.00 Ry     beta= 0.20
     Davidson diagonalization with overlap
     ethr =  8.74E-05,  avg # of iterations =  2.1

     total cpu time spent up to now is       28.6 secs

     total energy              =     -67.90320587 Ry
     estimated scf accuracy    <       0.00170072 Ry

     iteration #  5     ecut=   400.00 Ry     beta= 0.20
     Davidson diagonalization with overlap
     ethr =  2.13E-05,  avg # of iterations =  1.6

     total cpu time spent up to now is       34.3 secs

     total energy              =     -67.90341612 Ry
     estimated scf accuracy    <       0.00001015 Ry

     iteration #  6     ecut=   400.00 Ry     beta= 0.20
     Davidson diagonalization with overlap
     ethr =  1.27E-07,  avg # of iterations =  3.6

     total cpu time spent up to now is       41.8 secs

     total energy              =     -67.90337546 Ry
     estimated scf accuracy    <       0.00011489 Ry

     iteration #  7     ecut=   400.00 Ry     beta= 0.20
     Davidson diagonalization with overlap
     ethr =  1.27E-07,  avg # of iterations =  2.3

     total cpu time spent up to now is       48.2 secs

     total energy              =     -67.90340000 Ry
     estimated scf accuracy    <       0.00000262 Ry

     iteration #  8     ecut=   400.00 Ry     beta= 0.20
     Davidson diagonalization with overlap
     ethr =  3.28E-08,  avg # of iterations =  2.0

     total cpu time spent up to now is       54.2 secs

     total energy              =     -67.90340063 Ry
     estimated scf accuracy    <       0.00000026 Ry

     iteration #  9     ecut=   400.00 Ry     beta= 0.20
     Davidson diagonalization with overlap
     ethr =  3.24E-09,  avg # of iterations =  1.2

     total cpu time spent up to now is       59.6 secs

     total energy              =     -67.90340060 Ry
     estimated scf accuracy    <       0.00000009 Ry

     iteration # 10     ecut=   400.00 Ry     beta= 0.20
     Davidson diagonalization with overlap
     ethr =  1.15E-09,  avg # of iterations =  1.1

     total cpu time spent up to now is       64.9 secs

     End of self-consistent calculation

     Number of k-points >= 100: set verbosity='high' to print the bands.

     the Fermi energy is    12.9199 ev

!    total energy              =     -67.90340061 Ry
     total all-electron energy =      -595.344979 Ry
     estimated scf accuracy    <          6.3E-09 Ry
     smearing contrib. (-TS)   =      -0.00000000 Ry
     internal energy E=F+TS    =     -67.90340061 Ry

     The total energy is F=E-TS. E is the sum of the following terms:
     one-electron contribution =       3.32973853 Ry
     hartree contribution      =       4.56030097 Ry
     xc contribution           =      -8.64069227 Ry
     ewald contribution        =     -24.51862769 Ry
     one-center paw contrib.   =     -42.63412015 Ry

     convergence has been achieved in  10 iterations

     Forces acting on atoms (cartesian axes, Ry/au):

     atom    1 type  1   force =    -0.00000000    0.00000000   -0.00000000
     atom    2 type  2   force =    -0.00000000   -0.00000000    0.00000000

     Total force =     0.000000     Total SCF correction =     0.000000


     Computing stress (Cartesian axis) and pressure

          total   stress  (Ry/bohr**3)                   (kbar)     P=        6.21
   0.00004220  -0.00000000  -0.00000000            6.21       -0.00       -0.00
  -0.00000000   0.00004220   0.00000000           -0.00        6.21        0.00
   0.00000000   0.00000000   0.00004220            0.00        0.00        6.21


     Writing all to output data dir ../output/AlN.save/
 
     init_run     :      2.52s CPU      2.62s WALL (       1 calls)
     electrons    :     60.96s CPU     62.11s WALL (       1 calls)
     forces       :      0.77s CPU      0.80s WALL (       1 calls)
     stress       :      2.87s CPU      2.95s WALL (       1 calls)

     Called by init_run:
     wfcinit      :      1.89s CPU      1.93s WALL (       1 calls)
     potinit      :      0.13s CPU      0.15s WALL (       1 calls)
     hinit0       :      0.31s CPU      0.32s WALL (       1 calls)

     Called by electrons:
     c_bands      :     47.78s CPU     48.28s WALL (      10 calls)
     sum_band     :     10.56s CPU     10.87s WALL (      10 calls)
     v_of_rho     :      0.68s CPU      0.74s WALL (      11 calls)
     newd         :      0.80s CPU      1.03s WALL (      11 calls)
     PAW_pot      :      0.60s CPU      0.64s WALL (      11 calls)
     mix_rho      :      0.70s CPU      0.74s WALL (      10 calls)

     Called by c_bands:
     init_us_2    :      2.49s CPU      2.53s WALL (    1679 calls)
     init_us_2:cp :      2.48s CPU      2.52s WALL (    1679 calls)
     cegterg      :     40.24s CPU     40.67s WALL (     730 calls)

     Called by *egterg:
     cdiaghg      :      0.26s CPU      0.27s WALL (    2296 calls)
     h_psi        :     36.24s CPU     36.59s WALL (    2369 calls)
     s_psi        :      1.16s CPU      1.17s WALL (    2369 calls)
     g_psi        :      0.23s CPU      0.23s WALL (    1566 calls)

     Called by h_psi:
     h_psi:calbec :      1.21s CPU      1.23s WALL (    2369 calls)
     vloc_psi     :     33.42s CPU     33.73s WALL (    2369 calls)
     add_vuspsi   :      1.33s CPU      1.35s WALL (    2369 calls)

     General routines
     calbec       :      1.81s CPU      1.83s WALL (    3464 calls)
     fft          :      0.32s CPU      0.33s WALL (     146 calls)
     ffts         :      0.34s CPU      0.34s WALL (     179 calls)
     fftw         :     32.46s CPU     32.75s WALL (   34882 calls)
 
     Parallel routines
 
     PWSCF        :   1m 7.32s CPU   1m 9.23s WALL

 
   This run was terminated on:  11:43: 0  28Apr2026            

=------------------------------------------------------------------------------=
   JOB DONE.
=------------------------------------------------------------------------------=
