
     Program PWSCF v.7.1 starts on 28Apr2026 at 11:38:24 

     This program is part of the open-source Quantum ESPRESSO suite
     for quantum simulation of materials; please cite
         "P. Giannozzi et al., J. Phys.:Condens. Matter 21 395502 (2009);
         "P. Giannozzi et al., J. Phys.:Condens. Matter 29 465901 (2017);
         "P. Giannozzi et al., J. Chem. Phys. 152 154105 (2020);
          URL http://www.quantum-espresso.org", 
     in publications or presentations arising from this work. More details at
     http://www.quantum-espresso.org/quote

     Parallel version (MPI & OpenMP), running on       4 processor cores
     Number of MPI processes:                 4
     Threads/MPI process:                     1

     MPI processes distributed on     1 nodes
     380705 MiB available memory on the printing compute node when the environment starts
 
     Reading input from AlN_cutoff30.in

     Current dimensions of program PWSCF are:
     Max number of different atomic species (ntypx) = 10
     Max number of k-points (npk) = 150000
     Max angular momentum in pseudopotentials (lmaxx) =  4
     file Al.pbe-n-kjpaw_psl.1.0.0.UPF: wavefunction(s)  3S 3P renormalized
     file N.pbe-n-kjpaw_psl.1.0.0.UPF: wavefunction(s)  2S renormalized
     Message from routine setup:
     using ibrav=0 with symmetry is DISCOURAGED, use correct ibrav instead
 
     K-points division:     npool     =       2
     R & G space division:  proc/nbgrp/npool/nimage =       2
     Subspace diagonalization in iterative solution of the eigenvalue problem:
     a serial algorithm will be used

 
     Parallelization info
     --------------------
     sticks:   dense  smooth     PW     G-vecs:    dense   smooth      PW
     Min         126     126     42                 1282     1282     267
     Max         127     127     43                 1283     1283     270
     Sum         253     253     85                 2565     2565     537
 
     Using Slab Decomposition
 


     bravais-lattice index     =            0
     lattice parameter (alat)  =       5.4385  a.u.
     unit-cell volume          =     113.7417 (a.u.)^3
     number of atoms/cell      =            2
     number of atomic types    =            2
     number of electrons       =         8.00
     number of Kohn-Sham states=            8
     kinetic-energy cutoff     =      30.0000  Ry
     charge density cutoff     =     120.0000  Ry
     scf convergence threshold =      1.0E-08
     mixing beta               =       0.2000
     number of iterations used =            8  local-TF  mixing
     Exchange-correlation= SLA  PW   PBX  PBC
                           (   1   4   3   4   0   0   0)

     celldm(1)=   5.438489  celldm(2)=   0.000000  celldm(3)=   0.000000
     celldm(4)=   0.000000  celldm(5)=   0.000000  celldm(6)=   0.000000

     crystal axes: (cart. coord. in units of alat)
               a(1) = (  -0.707107   0.000000   0.707107 )  
               a(2) = (   0.000000   0.707107   0.707107 )  
               a(3) = (  -0.707107   0.707107   0.000000 )  

     reciprocal axes: (cart. coord. in units 2 pi/alat)
               b(1) = ( -0.707107 -0.707107  0.707107 )  
               b(2) = (  0.707107  0.707107  0.707107 )  
               b(3) = ( -0.707107  0.707107 -0.707107 )  


     PseudoPot. # 1 for Al read from file:
     ../../pseudo/Al.pbe-n-kjpaw_psl.1.0.0.UPF
     MD5 check sum: 502b6b27b9c6270cab5dd1084b96fa6d
     Pseudo is Projector augmented-wave + core cor, Zval =  3.0
     Generated using &quot;atomic&quot; code by A. Dal Corso  v.6.3
     Shape of augmentation charge: PSQ
     Using radial grid of 1135 points,  6 beta functions with: 
                l(1) =   0
                l(2) =   0
                l(3) =   1
                l(4) =   1
                l(5) =   2
                l(6) =   2
     Q(r) pseudized with 0 coefficients 


     PseudoPot. # 2 for N  read from file:
     ../../pseudo/N.pbe-n-kjpaw_psl.1.0.0.UPF
     MD5 check sum: 14c48229446f9f2d411169a3abcbc3fa
     Pseudo is Projector augmented-wave + core cor, Zval =  5.0
     Generated using &quot;atomic&quot; code by A. Dal Corso  v.6.3
     Shape of augmentation charge: PSQ
     Using radial grid of 1085 points,  4 beta functions with: 
                l(1) =   0
                l(2) =   0
                l(3) =   1
                l(4) =   1
     Q(r) pseudized with 0 coefficients 


     atomic species   valence    mass     pseudopotential
        Al             3.00    26.98200     Al( 1.00)
        N              5.00    14.00700     N ( 1.00)

     48 Sym. Ops., with inversion, found



   Cartesian axes

     site n.     atom                  positions (alat units)
         1           Al  tau(   1) = (   0.0000000   0.0000000   0.0000000  )
         2           N   tau(   2) = (  -0.7071068   0.7071068   0.7071068  )

     number of k points=   145  Gaussian smearing, width (Ry)=  0.0050

     Number of k-points >= 100: set verbosity='high' to print them.

     Dense  grid:     2565 G-vectors     FFT dimensions: (  20,  20,  20)

     Estimated max dynamical RAM per process >       6.07 MB

     Estimated total dynamical RAM >      23.65 MB

     Check: negative core charge=   -0.000160

     Initial potential from superposition of free atoms

     starting charge       7.9977, renormalised to       8.0000
     Starting wfcs are    8 randomized atomic wfcs
     Checking if some PAW data can be deallocated... 

     total cpu time spent up to now is        0.3 secs

     Self-consistent Calculation

     iteration #  1     ecut=    30.00 Ry     beta= 0.20
     Davidson diagonalization with overlap
     ethr =  1.00E-02,  avg # of iterations =  3.9

     total cpu time spent up to now is        0.6 secs

     total energy              =     -67.93749169 Ry
     estimated scf accuracy    <       0.39158530 Ry

     iteration #  2     ecut=    30.00 Ry     beta= 0.20
     Davidson diagonalization with overlap
     ethr =  4.89E-03,  avg # of iterations =  1.0

     total cpu time spent up to now is        0.9 secs

     total energy              =     -67.84247803 Ry
     estimated scf accuracy    <       0.21822119 Ry

     iteration #  3     ecut=    30.00 Ry     beta= 0.20
     Davidson diagonalization with overlap
     ethr =  2.73E-03,  avg # of iterations =  1.8

     total cpu time spent up to now is        1.1 secs

     total energy              =     -67.87871662 Ry
     estimated scf accuracy    <       0.00676727 Ry

     iteration #  4     ecut=    30.00 Ry     beta= 0.20
     Davidson diagonalization with overlap
     ethr =  8.46E-05,  avg # of iterations =  2.0

     total cpu time spent up to now is        1.3 secs

     total energy              =     -67.87866877 Ry
     estimated scf accuracy    <       0.00146563 Ry

     iteration #  5     ecut=    30.00 Ry     beta= 0.20
     Davidson diagonalization with overlap
     ethr =  1.83E-05,  avg # of iterations =  1.7

     total cpu time spent up to now is        1.6 secs

     total energy              =     -67.87888206 Ry
     estimated scf accuracy    <       0.00000984 Ry

     iteration #  6     ecut=    30.00 Ry     beta= 0.20
     Davidson diagonalization with overlap
     ethr =  1.23E-07,  avg # of iterations =  3.2

     total cpu time spent up to now is        1.9 secs

     total energy              =     -67.87884434 Ry
     estimated scf accuracy    <       0.00009372 Ry

     iteration #  7     ecut=    30.00 Ry     beta= 0.20
     Davidson diagonalization with overlap
     ethr =  1.23E-07,  avg # of iterations =  2.0

     total cpu time spent up to now is        2.1 secs

     total energy              =     -67.87886396 Ry
     estimated scf accuracy    <       0.00000123 Ry

     iteration #  8     ecut=    30.00 Ry     beta= 0.20
     Davidson diagonalization with overlap
     ethr =  1.54E-08,  avg # of iterations =  2.0

     total cpu time spent up to now is        2.4 secs

     total energy              =     -67.87886429 Ry
     estimated scf accuracy    <       0.00000036 Ry

     iteration #  9     ecut=    30.00 Ry     beta= 0.20
     Davidson diagonalization with overlap
     ethr =  4.51E-09,  avg # of iterations =  1.0

     total cpu time spent up to now is        2.6 secs

     total energy              =     -67.87886429 Ry
     estimated scf accuracy    <       0.00000006 Ry

     iteration # 10     ecut=    30.00 Ry     beta= 0.20
     Davidson diagonalization with overlap
     ethr =  7.93E-10,  avg # of iterations =  1.5

     total cpu time spent up to now is        2.8 secs

     End of self-consistent calculation

     Number of k-points >= 100: set verbosity='high' to print the bands.

     the Fermi energy is    12.9393 ev

!    total energy              =     -67.87886429 Ry
     total all-electron energy =      -595.320443 Ry
     estimated scf accuracy    <          5.4E-09 Ry
     smearing contrib. (-TS)   =      -0.00000000 Ry
     internal energy E=F+TS    =     -67.87886429 Ry

     The total energy is F=E-TS. E is the sum of the following terms:
     one-electron contribution =       3.37158891 Ry
     hartree contribution      =       4.53504515 Ry
     xc contribution           =      -8.63276376 Ry
     ewald contribution        =     -24.51862774 Ry
     one-center paw contrib.   =     -42.63410685 Ry

     convergence has been achieved in  10 iterations

     Forces acting on atoms (cartesian axes, Ry/au):

     atom    1 type  1   force =    -0.00000000   -0.00000000    0.00000000
     atom    2 type  2   force =     0.00000000    0.00000000   -0.00000000

     Total force =     0.000000     Total SCF correction =     0.000000


     Computing stress (Cartesian axis) and pressure

          total   stress  (Ry/bohr**3)                   (kbar)     P=     -138.12
  -0.00093892   0.00000000  -0.00000000         -138.12        0.00       -0.00
   0.00000000  -0.00093892   0.00000000            0.00     -138.12        0.00
   0.00000000   0.00000000  -0.00093892            0.00        0.00     -138.12


     Writing all to output data dir ../output/AlN.save/
 
     init_run     :      0.19s CPU      0.20s WALL (       1 calls)
     electrons    :      2.35s CPU      2.50s WALL (       1 calls)
     forces       :      0.02s CPU      0.02s WALL (       1 calls)
     stress       :      0.06s CPU      0.06s WALL (       1 calls)

     Called by init_run:
     wfcinit      :      0.06s CPU      0.06s WALL (       1 calls)
     potinit      :      0.05s CPU      0.05s WALL (       1 calls)
     hinit0       :      0.07s CPU      0.07s WALL (       1 calls)

     Called by electrons:
     c_bands      :      1.56s CPU      1.68s WALL (      10 calls)
     sum_band     :      0.28s CPU      0.30s WALL (      10 calls)
     v_of_rho     :      0.01s CPU      0.01s WALL (      11 calls)
     newd         :      0.02s CPU      0.02s WALL (      11 calls)
     PAW_pot      :      0.51s CPU      0.51s WALL (      11 calls)
     mix_rho      :      0.01s CPU      0.01s WALL (      10 calls)

     Called by c_bands:
     init_us_2    :      0.06s CPU      0.06s WALL (    1679 calls)
     init_us_2:cp :      0.05s CPU      0.06s WALL (    1679 calls)
     cegterg      :      1.36s CPU      1.47s WALL (     730 calls)

     Called by *egterg:
     cdiaghg      :      0.14s CPU      0.15s WALL (    2255 calls)
     h_psi        :      1.14s CPU      1.23s WALL (    2328 calls)
     s_psi        :      0.02s CPU      0.02s WALL (    2328 calls)
     g_psi        :      0.01s CPU      0.01s WALL (    1525 calls)

     Called by h_psi:
     h_psi:calbec :      0.03s CPU      0.03s WALL (    2328 calls)
     vloc_psi     :      1.07s CPU      1.16s WALL (    2328 calls)
     add_vuspsi   :      0.02s CPU      0.02s WALL (    2328 calls)

     General routines
     calbec       :      0.04s CPU      0.04s WALL (    3423 calls)
     fft          :      0.01s CPU      0.01s WALL (     146 calls)
     ffts         :      0.01s CPU      0.01s WALL (     161 calls)
     fftw         :      1.15s CPU      1.24s WALL (   34672 calls)
 
     Parallel routines
 
     PWSCF        :      2.79s CPU      3.16s WALL

 
   This run was terminated on:  11:38:27  28Apr2026            

=------------------------------------------------------------------------------=
   JOB DONE.
=------------------------------------------------------------------------------=
