
     Program PWSCF v.7.1 starts on 11May2026 at 16: 2: 1 

     This program is part of the open-source Quantum ESPRESSO suite
     for quantum simulation of materials; please cite
         "P. Giannozzi et al., J. Phys.:Condens. Matter 21 395502 (2009);
         "P. Giannozzi et al., J. Phys.:Condens. Matter 29 465901 (2017);
         "P. Giannozzi et al., J. Chem. Phys. 152 154105 (2020);
          URL http://www.quantum-espresso.org", 
     in publications or presentations arising from this work. More details at
     http://www.quantum-espresso.org/quote

     Parallel version (MPI & OpenMP), running on      32 processor cores
     Number of MPI processes:                32
     Threads/MPI process:                     1

     MPI processes distributed on     1 nodes
     91289 MiB available memory on the printing compute node when the environment starts
 
     Reading input from TiAlN_x0625finalrelaxedresult8184825.in

     Current dimensions of program PWSCF are:
     Max number of different atomic species (ntypx) = 10
     Max number of k-points (npk) = 150000
     Max angular momentum in pseudopotentials (lmaxx) =  4
     file Al.pbe-n-kjpaw_psl.1.0.0.UPF: wavefunction(s)  3S 3P renormalized
     file N.pbe-n-kjpaw_psl.1.0.0.UPF: wavefunction(s)  2S renormalized
     file Ti.pbe-spn-kjpaw_psl.1.0.0.UPF: wavefunction(s)  3S 3P 3D renormalized
 
     K-points division:     npool     =       4
     R & G space division:  proc/nbgrp/npool/nimage =       8
     Subspace diagonalization in iterative solution of the eigenvalue problem:
     one sub-group per band group will be used
     scalapack distributed-memory algorithm (size of sub-group:  2*  2 procs)

 
     Parallelization info
     --------------------
     sticks:   dense  smooth     PW     G-vecs:    dense   smooth      PW
     Min         572     572    155                29080    29080    4141
     Max         573     573    157                29083    29083    4142
     Sum        4577    4577   1245               232653   232653   33131
 
     Using Slab Decomposition
 


     bravais-lattice index     =            0
     lattice parameter (alat)  =      15.4671  a.u.
     unit-cell volume          =    3700.1966 (a.u.)^3
     number of atoms/cell      =           64
     number of atomic types    =            3
     number of electrons       =       364.00
     number of Kohn-Sham states=          218
     kinetic-energy cutoff     =      60.0000  Ry
     charge density cutoff     =     240.0000  Ry
     scf convergence threshold =      1.0E-08
     mixing beta               =       0.2000
     number of iterations used =            8  local-TF  mixing
     Exchange-correlation= SLA  PW   PBX  PBC
                           (   1   4   3   4   0   0   0)

     celldm(1)=  15.467078  celldm(2)=   0.000000  celldm(3)=   0.000000
     celldm(4)=   0.000000  celldm(5)=   0.000000  celldm(6)=   0.000000

     crystal axes: (cart. coord. in units of alat)
               a(1) = (   1.000000   0.000000   0.000000 )  
               a(2) = (   0.000000   1.000000   0.000000 )  
               a(3) = (   0.000000   0.000000   1.000000 )  

     reciprocal axes: (cart. coord. in units 2 pi/alat)
               b(1) = (  1.000000  0.000000  0.000000 )  
               b(2) = (  0.000000  1.000000  0.000000 )  
               b(3) = (  0.000000  0.000000  1.000000 )  


     PseudoPot. # 1 for Al read from file:
     ../../../pseudo/Al.pbe-n-kjpaw_psl.1.0.0.UPF
     MD5 check sum: 502b6b27b9c6270cab5dd1084b96fa6d
     Pseudo is Projector augmented-wave + core cor, Zval =  3.0
     Generated using &quot;atomic&quot; code by A. Dal Corso  v.6.3
     Shape of augmentation charge: PSQ
     Using radial grid of 1135 points,  6 beta functions with: 
                l(1) =   0
                l(2) =   0
                l(3) =   1
                l(4) =   1
                l(5) =   2
                l(6) =   2
     Q(r) pseudized with 0 coefficients 


     PseudoPot. # 2 for N  read from file:
     ../../../pseudo/N.pbe-n-kjpaw_psl.1.0.0.UPF
     MD5 check sum: 14c48229446f9f2d411169a3abcbc3fa
     Pseudo is Projector augmented-wave + core cor, Zval =  5.0
     Generated using &quot;atomic&quot; code by A. Dal Corso  v.6.3
     Shape of augmentation charge: PSQ
     Using radial grid of 1085 points,  4 beta functions with: 
                l(1) =   0
                l(2) =   0
                l(3) =   1
                l(4) =   1
     Q(r) pseudized with 0 coefficients 


     PseudoPot. # 3 for Ti read from file:
     ../../../pseudo/Ti.pbe-spn-kjpaw_psl.1.0.0.UPF
     MD5 check sum: 01f69b0d8ba4438b2e03ac6ea4af1c0b
     Pseudo is Projector augmented-wave + core cor, Zval = 12.0
     Generated using &quot;atomic&quot; code by A. Dal Corso  v.6.2.2
     Shape of augmentation charge: PSQ
     Using radial grid of 1177 points,  6 beta functions with: 
                l(1) =   0
                l(2) =   0
                l(3) =   1
                l(4) =   1
                l(5) =   2
                l(6) =   2
     Q(r) pseudized with 0 coefficients 


     atomic species   valence    mass     pseudopotential
        Al             3.00    26.98200     Al( 1.00)
        N              5.00    14.00700     N ( 1.00)
        Ti            12.00    47.86700     Ti( 1.00)

     No symmetry found



   Cartesian axes

     site n.     atom                  positions (alat units)
         1           Al  tau(   1) = (   0.0036305   0.0046824  -0.0055885  )
         2           N   tau(   2) = (   0.2516615   0.0009724  -0.0068718  )
         3           Ti  tau(   3) = (  -0.0053324   0.2511257   0.2608064  )
         4           N   tau(   4) = (   0.2543627   0.2607590   0.2513215  )
         5           Ti  tau(   5) = (   0.2501496  -0.0004228   0.2567345  )
         6           N   tau(   6) = (   0.0003113  -0.0005464   0.2489183  )
         7           Al  tau(   7) = (   0.2524488   0.2527620  -0.0013738  )
         8           N   tau(   8) = (   0.0022360   0.2508137  -0.0032984  )
         9           Al  tau(   9) = (  -0.0005151  -0.0030860   0.5137203  )
        10           N   tau(  10) = (   0.2450142   0.0047868   0.5144167  )
        11           Ti  tau(  11) = (  -0.0068099   0.2604319   0.7468962  )
        12           N   tau(  12) = (   0.2560513   0.2550045   0.7593259  )
        13           Al  tau(  13) = (   0.2536044  -0.0003347   0.7590090  )
        14           N   tau(  14) = (  -0.0002896  -0.0039908   0.7604996  )
        15           Al  tau(  15) = (   0.2528410   0.2525298   0.5084305  )
        16           N   tau(  16) = (   0.0081118   0.2400346   0.5060814  )
        17           Al  tau(  17) = (   0.0018920   0.5017886  -0.0007654  )
        18           N   tau(  18) = (   0.2521794   0.5037600  -0.0020319  )
        19           Ti  tau(  19) = (   0.0028661   0.7597512   0.2586239  )
        20           N   tau(  20) = (   0.2626315   0.7470422   0.2437560  )
        21           Al  tau(  21) = (   0.2541264   0.5020704   0.2453899  )
        22           N   tau(  22) = (   0.0001406   0.5069848   0.2405175  )
        23           Al  tau(  23) = (   0.2539171   0.7570742  -0.0025209  )
        24           N   tau(  24) = (   0.0056625   0.7612056  -0.0066265  )
        25           Ti  tau(  25) = (  -0.0022251   0.5014392   0.5007509  )
        26           N   tau(  26) = (   0.2511204   0.4974397   0.5053535  )
        27           Al  tau(  27) = (   0.0007393   0.7582102   0.7585541  )
        28           N   tau(  28) = (   0.2548060   0.7556056   0.7623944  )
        29           Al  tau(  29) = (   0.2553572   0.5061335   0.7613804  )
        30           N   tau(  30) = (  -0.0003731   0.5126710   0.7655592  )
        31           Ti  tau(  31) = (   0.2516399   0.7540455   0.4987597  )
        32           N   tau(  32) = (  -0.0062424   0.7655486   0.5157405  )
        33           Al  tau(  33) = (   0.5020515   0.0007892  -0.0031880  )
        34           N   tau(  34) = (   0.7594376   0.0058368  -0.0075083  )
        35           Ti  tau(  35) = (   0.5112856   0.2439995   0.2615872  )
        36           N   tau(  36) = (   0.7562594   0.2652141   0.2403650  )
        37           Ti  tau(  37) = (   0.7590661   0.0053624   0.2572571  )
        38           N   tau(  38) = (   0.5046322  -0.0122775   0.2396500  )
        39           Al  tau(  39) = (   0.7567286   0.2537964  -0.0031718  )
        40           N   tau(  40) = (   0.5027254   0.2518784  -0.0056058  )
        41           Ti  tau(  41) = (   0.5067168   0.0045343   0.4964203  )
        42           N   tau(  42) = (   0.7654812  -0.0069414   0.5160277  )
        43           Al  tau(  43) = (   0.5035634   0.2512871   0.7623945  )
        44           N   tau(  44) = (   0.7505200   0.2564056   0.7638089  )
        45           Al  tau(  45) = (   0.7555287  -0.0024487   0.7582337  )
        46           N   tau(  46) = (   0.5051605  -0.0018196   0.7643277  )
        47           Ti  tau(  47) = (   0.7543195   0.2533883   0.4990593  )
        48           N   tau(  48) = (   0.4949695   0.2512085   0.5180158  )
        49           Al  tau(  49) = (   0.5042793   0.5033290  -0.0005069  )
        50           N   tau(  50) = (   0.7586143   0.5028756  -0.0014649  )
        51           Al  tau(  51) = (   0.5052824   0.7547820   0.2491625  )
        52           N   tau(  52) = (   0.7496353   0.7489425   0.2602646  )
        53           Al  tau(  53) = (   0.7565138   0.5067050   0.2474476  )
        54           N   tau(  54) = (   0.5056367   0.5101765   0.2440080  )
        55           Ti  tau(  55) = (   0.7644463   0.7640841   0.0090380  )
        56           N   tau(  56) = (   0.5029210   0.7571836  -0.0025936  )
        57           Ti  tau(  57) = (   0.5071603   0.4991199   0.5009799  )
        58           N   tau(  58) = (   0.7577879   0.5120111   0.5066046  )
        59           Al  tau(  59) = (   0.5049604   0.7585524   0.7592589  )
        60           N   tau(  60) = (   0.7556740   0.7560740   0.7561704  )
        61           Al  tau(  61) = (   0.7536840   0.5098303   0.7618139  )
        62           N   tau(  62) = (   0.5050086   0.5069918   0.7644332  )
        63           Al  tau(  63) = (   0.7561933   0.7576169   0.5086546  )
        64           N   tau(  64) = (   0.5104673   0.7576440   0.5076167  )

     number of k points=     8  Gaussian smearing, width (Ry)=  0.0050
                       cart. coord. in units 2pi/alat
        k(    1) = (   0.0000000   0.0000000   0.0000000), wk =   0.2500000
        k(    2) = (   0.0000000   0.0000000  -0.5000000), wk =   0.2500000
        k(    3) = (   0.0000000  -0.5000000  -0.5000000), wk =   0.2500000
        k(    4) = (  -0.5000000  -0.5000000  -0.5000000), wk =   0.2500000
        k(    5) = (  -0.5000000   0.0000000   0.0000000), wk =   0.2500000
        k(    6) = (   0.0000000  -0.5000000   0.0000000), wk =   0.2500000
        k(    7) = (  -0.5000000   0.0000000   0.5000000), wk =   0.2500000
        k(    8) = (  -0.5000000   0.5000000   0.0000000), wk =   0.2500000

     Dense  grid:   232653 G-vectors     FFT dimensions: (  80,  80,  80)

     Estimated max dynamical RAM per process >     181.70 MB

     Estimated total dynamical RAM >       5.51 GB

     Check: negative core charge=   -0.000017

     Initial potential from superposition of free atoms

     starting charge     363.9362, renormalised to     364.0000
     Starting wfcs are  328 randomized atomic wfcs
     Checking if some PAW data can be deallocated... 

     total cpu time spent up to now is        5.3 secs

     Self-consistent Calculation

     iteration #  1     ecut=    60.00 Ry     beta= 0.20
     Davidson diagonalization with overlap
     ethr =  1.00E-02,  avg # of iterations =  2.0

     total cpu time spent up to now is       10.9 secs

     total energy              =   -3905.44317163 Ry
     estimated scf accuracy    <      17.50839221 Ry

     iteration #  2     ecut=    60.00 Ry     beta= 0.20
     Davidson diagonalization with overlap
     ethr =  4.81E-03,  avg # of iterations =  1.0

     total cpu time spent up to now is       15.5 secs

     total energy              =   -3901.19301212 Ry
     estimated scf accuracy    <       9.89408414 Ry

     iteration #  3     ecut=    60.00 Ry     beta= 0.20
     Davidson diagonalization with overlap
     ethr =  2.72E-03,  avg # of iterations =  2.4

     total cpu time spent up to now is       21.7 secs

     total energy              =   -3903.41871152 Ry
     estimated scf accuracy    <       0.47116657 Ry

     iteration #  4     ecut=    60.00 Ry     beta= 0.20
     Davidson diagonalization with overlap
     ethr =  1.29E-04,  avg # of iterations =  7.5

     total cpu time spent up to now is       28.8 secs

     total energy              =   -3903.44458047 Ry
     estimated scf accuracy    <       0.38522370 Ry

     iteration #  5     ecut=    60.00 Ry     beta= 0.20
     Davidson diagonalization with overlap
     ethr =  1.06E-04,  avg # of iterations =  2.0

     total cpu time spent up to now is       33.9 secs

     total energy              =   -3903.42778135 Ry
     estimated scf accuracy    <       0.18476478 Ry

     iteration #  6     ecut=    60.00 Ry     beta= 0.20
     Davidson diagonalization with overlap
     ethr =  5.08E-05,  avg # of iterations =  2.0

     total cpu time spent up to now is       39.5 secs

     total energy              =   -3903.43250578 Ry
     estimated scf accuracy    <       0.05354565 Ry

     iteration #  7     ecut=    60.00 Ry     beta= 0.20
     Davidson diagonalization with overlap
     ethr =  1.47E-05,  avg # of iterations =  2.0

     total cpu time spent up to now is       44.6 secs

     total energy              =   -3903.43026226 Ry
     estimated scf accuracy    <       0.01425379 Ry

     iteration #  8     ecut=    60.00 Ry     beta= 0.20
     Davidson diagonalization with overlap
     ethr =  3.92E-06,  avg # of iterations =  5.9

     total cpu time spent up to now is       52.0 secs

     total energy              =   -3903.43280497 Ry
     estimated scf accuracy    <       0.00428270 Ry

     iteration #  9     ecut=    60.00 Ry     beta= 0.20
     Davidson diagonalization with overlap
     ethr =  1.18E-06,  avg # of iterations =  4.4

     total cpu time spent up to now is       58.3 secs

     total energy              =   -3903.43318944 Ry
     estimated scf accuracy    <       0.00080085 Ry

     iteration # 10     ecut=    60.00 Ry     beta= 0.20
     Davidson diagonalization with overlap
     ethr =  2.20E-07,  avg # of iterations =  3.5

     total cpu time spent up to now is       64.0 secs

     total energy              =   -3903.43317201 Ry
     estimated scf accuracy    <       0.00040901 Ry

     iteration # 11     ecut=    60.00 Ry     beta= 0.20
     Davidson diagonalization with overlap
     ethr =  1.12E-07,  avg # of iterations =  6.1

     total cpu time spent up to now is       71.7 secs

     total energy              =   -3903.43306343 Ry
     estimated scf accuracy    <       0.00068503 Ry

     iteration # 12     ecut=    60.00 Ry     beta= 0.20
     Davidson diagonalization with overlap
     ethr =  1.12E-07,  avg # of iterations =  2.8

     total cpu time spent up to now is       77.8 secs

     total energy              =   -3903.43316800 Ry
     estimated scf accuracy    <       0.00002654 Ry

     iteration # 13     ecut=    60.00 Ry     beta= 0.20
     Davidson diagonalization with overlap
     ethr =  7.29E-09,  avg # of iterations =  6.2

     total cpu time spent up to now is       85.7 secs

     total energy              =   -3903.43317178 Ry
     estimated scf accuracy    <       0.00001581 Ry

     iteration # 14     ecut=    60.00 Ry     beta= 0.20
     Davidson diagonalization with overlap
     ethr =  4.34E-09,  avg # of iterations =  2.0

     total cpu time spent up to now is       91.1 secs

     total energy              =   -3903.43317147 Ry
     estimated scf accuracy    <       0.00000408 Ry

     iteration # 15     ecut=    60.00 Ry     beta= 0.20
     Davidson diagonalization with overlap
     ethr =  1.12E-09,  avg # of iterations =  2.0

     total cpu time spent up to now is       96.2 secs

     total energy              =   -3903.43317153 Ry
     estimated scf accuracy    <       0.00000103 Ry

     iteration # 16     ecut=    60.00 Ry     beta= 0.20
     Davidson diagonalization with overlap
     ethr =  2.82E-10,  avg # of iterations =  2.0

     total cpu time spent up to now is      101.6 secs

     total energy              =   -3903.43317148 Ry
     estimated scf accuracy    <       0.00000049 Ry

     iteration # 17     ecut=    60.00 Ry     beta= 0.20
     Davidson diagonalization with overlap
     ethr =  1.34E-10,  avg # of iterations =  2.0

     total cpu time spent up to now is      106.7 secs

     total energy              =   -3903.43317149 Ry
     estimated scf accuracy    <       0.00000013 Ry

     iteration # 18     ecut=    60.00 Ry     beta= 0.20
     Davidson diagonalization with overlap
     ethr =  3.54E-11,  avg # of iterations =  2.6

     total cpu time spent up to now is      112.6 secs

     total energy              =   -3903.43317149 Ry
     estimated scf accuracy    <       0.00000006 Ry

     iteration # 19     ecut=    60.00 Ry     beta= 0.20
     Davidson diagonalization with overlap
     ethr =  1.71E-11,  avg # of iterations =  4.9

     total cpu time spent up to now is      119.4 secs

     total energy              =   -3903.43317151 Ry
     estimated scf accuracy    <       0.00000002 Ry

     iteration # 20     ecut=    60.00 Ry     beta= 0.20
     Davidson diagonalization with overlap
     ethr =  4.31E-12,  avg # of iterations =  4.0

     total cpu time spent up to now is      125.4 secs

     End of self-consistent calculation

          k = 0.0000 0.0000 0.0000 ( 28991 PWs)   bands (ev):

   -43.0636 -42.8548 -42.7552 -42.6904 -42.5875 -42.4596 -42.3997 -42.3658
   -42.3381 -42.3008 -42.2443 -42.1809 -19.5157 -19.4542 -19.3946 -19.3221
   -19.2651 -19.2486 -19.1994 -19.1921 -19.1510 -19.1295 -19.0941 -19.0778
   -19.0078 -18.9901 -18.9469 -18.9342 -18.9255 -18.8999 -18.8816 -18.8656
   -18.8240 -18.8175 -18.7510 -18.7341 -18.6945 -18.6776 -18.6316 -18.6266
   -18.6027 -18.5758 -18.5586 -18.5265 -18.4802 -18.4603 -18.4321 -18.3686
    -3.8398  -2.6000  -2.4157  -2.3370  -2.2363  -2.1747  -2.0648  -1.3830
    -1.2457  -1.2134  -1.1815  -1.0832  -1.0292  -1.0013  -0.9712  -0.9078
    -0.8707  -0.8060  -0.6935  -0.5800  -0.5305  -0.4990  -0.4428  -0.4240
    -0.3701  -0.3336  -0.1843  -0.0629   0.0096   0.0457   0.0728   0.1254
     5.1242   5.3662   5.5281   5.7347   6.5231   6.5619   6.8284   6.8401
     6.9020   7.0361   7.1111   7.1615   7.2625   7.2700   7.4891   7.5266
     7.5667   7.6694   7.7270   7.7879   7.8214   7.8405   7.9787   8.0009
     8.0484   8.1345   8.1814   8.2187   8.4108   8.4364   8.5706   8.6282
     8.7251   8.8303   8.9142   8.9309   9.0434   9.1431   9.1844   9.2110
     9.3034   9.3556   9.4117   9.4309   9.5158   9.5550   9.6035   9.6937
     9.7415   9.7926   9.8697   9.9177  10.0095  10.0800  10.1743  10.3334
    10.4449  10.4670  10.5370  10.5506  10.6288  10.6798  10.7715  10.7878
    10.8581  10.8863  10.8953  10.9617  11.0413  11.0868  11.1075  11.1605
    11.3230  11.3427  11.3780  11.5328  11.5739  11.5847  11.6423  11.6577
    11.7102  11.7373  11.7714  11.7860  11.8188  11.9136  11.9207  11.9684
    11.9843  12.0112  12.1102  12.1341  12.1656  13.0564  13.1180  13.1552
    13.1821  13.4710  13.5066  14.3090  14.3517  14.3714  14.7743  14.8891
    15.5244  15.5531  15.7364  16.0040  16.2428  16.3113  16.3771  16.4999
    16.5296  16.5688  16.6887  16.7933  16.8049  16.8874  16.9232  16.9856
    17.0150  17.0372  17.0792  17.1771  17.2268  17.3315  17.3379  17.3671
    17.4068  17.4630  17.4816  17.5029  17.5413  17.6169  17.6368  17.6861
    17.7556  17.8274

          k = 0.0000 0.0000-0.5000 ( 29078 PWs)   bands (ev):

   -43.0636 -42.8548 -42.7552 -42.6904 -42.5875 -42.4597 -42.3997 -42.3658
   -42.3381 -42.3008 -42.2443 -42.1809 -19.5158 -19.4542 -19.3946 -19.3221
   -19.2647 -19.2489 -19.1984 -19.1921 -19.1513 -19.1293 -19.0939 -19.0779
   -19.0077 -18.9901 -18.9469 -18.9342 -18.9255 -18.8998 -18.8818 -18.8657
   -18.8242 -18.8186 -18.7512 -18.7342 -18.6948 -18.6776 -18.6323 -18.6269
   -18.6026 -18.5754 -18.5585 -18.5259 -18.4803 -18.4602 -18.4326 -18.3680
    -3.6495  -3.0378  -2.3163  -2.2698  -2.1854  -1.9990  -1.8653  -1.7382
    -1.5137  -1.3465  -1.2704  -1.1777  -1.1055  -1.0778  -0.8601  -0.8325
    -0.7473  -0.7141  -0.6139  -0.5589  -0.5181  -0.4576  -0.3915  -0.2849
    -0.2791  -0.1904  -0.1341  -0.1195  -0.0544  -0.0439   0.0292   0.0922
     5.7015   5.8134   5.9339   6.1028   6.1805   6.2338   6.4924   6.5098
     6.5622   6.5953   6.9546   7.0914   7.1299   7.2177   7.3523   7.4513
     7.5658   7.6045   7.7007   7.7382   7.7724   7.8550   7.9715   8.0032
     8.0339   8.1261   8.2322   8.3177   8.3756   8.4084   8.4759   8.6049
     8.6348   8.6702   8.7821   8.8313   9.0150   9.1230   9.4377   9.4596
     9.5075   9.5873   9.6434   9.6515   9.6934   9.7210   9.7654   9.9016
    10.0235  10.0745  10.1140  10.1732  10.2323  10.3218  10.3644  10.3831
    10.4423  10.4607  10.5319  10.5609  10.5846  10.6233  10.6773  10.7046
    10.7756  10.8205  10.8415  10.8676  10.9205  10.9301  10.9769  11.0545
    11.0948  11.1409  11.2112  11.2589  11.3739  11.3773  11.5467  11.5907
    11.6217  11.6546  11.7227  11.7501  11.7659  11.9031  11.9127  11.9569
    11.9820  12.0187  12.0335  12.0906  12.5155  12.5723  12.6518  12.6926
    13.1538  14.1922  14.2304  14.3034  14.8043  14.9260  15.1478  15.2308
    15.4675  15.6546  15.7146  15.9635  16.0097  16.1397  16.1636  16.1877
    16.3308  16.5247  16.5449  16.6386  16.7273  16.7995  16.8829  16.9130
    16.9701  16.9978  17.0402  17.0906  17.1616  17.2860  17.3052  17.3577
    17.3857  17.4500  17.4897  17.5997  17.6202  17.6792  17.7444  17.8394
    17.8828  17.9824

          k = 0.0000-0.5000-0.5000 ( 29116 PWs)   bands (ev):

   -43.0636 -42.8548 -42.7552 -42.6905 -42.5875 -42.4597 -42.3992 -42.3664
   -42.3389 -42.2996 -42.2447 -42.1809 -19.5157 -19.4542 -19.3945 -19.3218
   -19.2606 -19.2463 -19.1927 -19.1904 -19.1523 -19.1311 -19.0943 -19.0761
   -19.0235 -19.0025 -18.9669 -18.9340 -18.9136 -18.8980 -18.8832 -18.8586
   -18.8227 -18.7938 -18.7595 -18.7359 -18.6965 -18.6822 -18.6380 -18.6091
   -18.6005 -18.5745 -18.5545 -18.5336 -18.4821 -18.4612 -18.4344 -18.3695
    -3.3467  -3.1588  -2.7461  -2.4636  -1.9389  -1.8840  -1.8542  -1.7262
    -1.5514  -1.3684  -1.3592  -1.1544  -1.0363  -0.8880  -0.8751  -0.8415
    -0.7962  -0.7272  -0.6321  -0.5726  -0.4503  -0.4202  -0.3576  -0.2910
    -0.2580  -0.2393  -0.1978  -0.1367  -0.0742  -0.0372   0.0443   0.0885
     5.7570   5.8392   6.0472   6.1802   6.2461   6.4553   6.7193   6.7791
     6.8395   6.8798   6.8992   6.9286   7.0454   7.0519   7.1932   7.2668
     7.3377   7.3943   7.4495   7.5099   7.5201   7.6525   7.7143   7.8110
     7.8881   8.0272   8.1656   8.3453   8.3862   8.4228   8.5445   8.6289
     8.7155   9.0078   9.0685   9.1889   9.2205   9.3469   9.4284   9.4495
     9.4775   9.5733   9.5925   9.6412   9.6718   9.8207   9.8746   9.9066
     9.9380  10.0037  10.0448  10.0683  10.1166  10.1789  10.2286  10.3217
    10.3731  10.4391  10.4670  10.6030  10.6213  10.6501  10.7009  10.7852
    10.8313  10.8463  10.9180  10.9791  11.0373  11.0758  11.1110  11.1282
    11.1862  11.1920  11.2488  11.3601  11.3815  11.4925  11.5177  11.5582
    11.6035  11.6304  11.6406  11.6669  11.7343  11.7781  11.7963  11.8030
    11.9368  11.9554  12.0173  12.0542  12.1936  12.2765  12.5446  12.5840
    14.1681  14.3634  14.5313  14.6672  14.7530  14.8523  15.2137  15.2623
    15.4841  15.5353  15.6937  15.8093  15.9449  15.9934  16.0075  16.0782
    16.0906  16.1739  16.3860  16.4426  16.5849  16.7260  16.7649  16.8218
    16.8474  16.8837  17.0830  17.1654  17.1917  17.2363  17.3253  17.3334
    17.3997  17.4489  17.5842  17.6382  17.6633  17.9078  17.9987  18.0851
    18.1299  18.2481

          k =-0.5000-0.5000-0.5000 ( 29080 PWs)   bands (ev):

   -43.0636 -42.8548 -42.7552 -42.6905 -42.5874 -42.4599 -42.3993 -42.3665
   -42.3381 -42.2999 -42.2446 -42.1809 -19.5158 -19.4540 -19.3943 -19.3224
   -19.2638 -19.2434 -19.1919 -19.1864 -19.1650 -19.1276 -19.0813 -19.0753
   -19.0220 -18.9979 -18.9542 -18.9491 -18.9153 -18.8990 -18.8798 -18.8632
   -18.8319 -18.8154 -18.7608 -18.7178 -18.7015 -18.6729 -18.6347 -18.6013
   -18.5988 -18.5813 -18.5639 -18.5329 -18.4835 -18.4596 -18.4318 -18.3687
    -3.0494  -2.9027  -2.8276  -2.7191  -2.4189  -2.1718  -2.1138  -1.9532
    -1.1747  -1.0609  -1.0199  -1.0004  -0.8374  -0.7964  -0.7839  -0.6737
    -0.6539  -0.6174  -0.5850  -0.5674  -0.5344  -0.5184  -0.4679  -0.4018
    -0.3597  -0.3421  -0.2576  -0.2005  -0.1644  -0.0898  -0.0533  -0.0071
     6.0840   6.1378   6.2742   6.2976   6.3683   6.4271   6.5036   6.5478
     6.5805   6.6384   6.7000   6.8795   6.8894   6.9281   7.0894   7.1951
     7.2256   7.2996   7.3394   7.5275   7.5968   7.6512   7.7498   8.0105
     8.3720   8.5311   8.5589   8.6614   8.7501   8.7722   8.8229   8.8825
     8.9063   8.9331   9.0153   9.0759   9.1696   9.1881   9.2846   9.3257
     9.3613   9.3764   9.3949   9.4527   9.5023   9.5524   9.5996   9.6644
     9.6925   9.7510   9.8625   9.8911   9.9361   9.9697  10.1214  10.2621
    10.3031  10.3372  10.3482  10.4998  10.5506  10.6697  10.7117  10.7451
    10.7736  10.8309  10.8771  10.8979  10.9790  11.0087  11.0557  11.2081
    11.2234  11.2459  11.3011  11.4016  11.4742  11.5668  11.6079  11.6388
    11.6681  11.7581  11.8065  11.8487  11.9039  11.9401  11.9914  12.0245
    12.0922  12.1643  12.1704  12.2361  12.3220  12.3944  12.4355  12.4646
    14.5070  14.6109  14.7006  14.8893  14.9215  14.9405  14.9920  15.1307
    15.2873  15.3229  15.4195  15.6148  15.7374  15.8508  15.9555  16.0248
    16.0310  16.0903  16.1966  16.2390  16.2739  16.4354  16.4800  16.6337
    16.7084  16.7792  17.0039  17.1230  17.2202  17.3118  17.3358  17.3906
    17.5477  17.7084  17.7456  17.7673  18.1240  18.1890  18.2098  18.2843
    18.3177  18.3954

          k =-0.5000 0.0000 0.0000 ( 29078 PWs)   bands (ev):

   -43.0636 -42.8548 -42.7552 -42.6904 -42.5874 -42.4600 -42.3996 -42.3660
   -42.3374 -42.3011 -42.2443 -42.1809 -19.5157 -19.4541 -19.3944 -19.3220
   -19.2607 -19.2459 -19.1922 -19.1893 -19.1638 -19.1220 -19.0867 -19.0716
   -19.0319 -18.9954 -18.9674 -18.9426 -18.9185 -18.9005 -18.8807 -18.8654
   -18.8258 -18.7916 -18.7671 -18.7170 -18.6961 -18.6763 -18.6287 -18.6187
   -18.5954 -18.5760 -18.5668 -18.5314 -18.4831 -18.4609 -18.4305 -18.3719
    -3.4622  -3.3967  -2.3106  -2.1013  -2.0626  -2.0155  -1.8257  -1.7241
    -1.6125  -1.5336  -1.2368  -1.1703  -0.8883  -0.8549  -0.8176  -0.7783
    -0.7280  -0.6657  -0.6450  -0.5911  -0.5379  -0.5091  -0.4227  -0.3719
    -0.3500  -0.2873  -0.1862  -0.1647  -0.0978  -0.0902   0.0218   0.1181
     5.6914   5.7587   5.9727   6.0384   6.1172   6.2637   6.4076   6.5362
     6.7853   6.7969   6.9848   7.0302   7.0561   7.1226   7.1850   7.2200
     7.2829   7.5242   7.6346   7.7610   7.8434   7.8879   7.9257   8.0661
     8.1470   8.2361   8.2597   8.3306   8.4113   8.5137   8.6145   8.6750
     8.7620   8.7922   8.8382   8.9454   9.0174   9.0575   9.4818   9.5824
     9.6010   9.6125   9.6961   9.7612   9.7880   9.8418   9.8705  10.0821
    10.0883  10.1668  10.1898  10.2571  10.2650  10.3185  10.3459  10.3763
    10.4366  10.4684  10.4900  10.5203  10.5766  10.5820  10.6524  10.7117
    10.7575  10.7813  10.8339  10.8486  10.9231  10.9329  10.9966  11.0800
    11.1255  11.1694  11.2195  11.2599  11.3020  11.3036  11.3546  11.4183
    11.4490  11.5304  11.5757  11.5873  11.6719  11.7269  11.7751  11.8095
    11.8884  11.9411  12.0509  12.1190  12.5350  12.5608  12.5745  12.6273
    13.5791  13.9769  14.4277  14.5378  14.7175  14.8424  15.1390  15.2100
    15.3734  15.4267  15.6303  15.7806  15.8366  16.0058  16.0508  16.1568
    16.3107  16.3876  16.5629  16.6063  16.6924  16.7224  16.8079  16.8995
    17.0155  17.0532  17.1982  17.2509  17.2764  17.3107  17.3937  17.4038
    17.4391  17.4556  17.4976  17.5222  17.5583  17.7129  17.8030  17.8376
    17.9812  18.0786

          k = 0.0000-0.5000 0.0000 ( 29078 PWs)   bands (ev):

   -43.0636 -42.8548 -42.7552 -42.6905 -42.5875 -42.4597 -42.3992 -42.3664
   -42.3389 -42.2996 -42.2446 -42.1809 -19.5158 -19.4541 -19.3945 -19.3218
   -19.2605 -19.2465 -19.1934 -19.1908 -19.1524 -19.1311 -19.0941 -19.0760
   -19.0234 -19.0024 -18.9669 -18.9341 -18.9135 -18.8982 -18.8828 -18.8587
   -18.8225 -18.7938 -18.7587 -18.7358 -18.6963 -18.6821 -18.6374 -18.6091
   -18.6005 -18.5747 -18.5546 -18.5340 -18.4823 -18.4613 -18.4338 -18.3701
    -3.5219  -3.3234  -2.3489  -2.1122  -2.0097  -1.9274  -1.8269  -1.7256
    -1.6788  -1.6064  -1.2385  -1.1812  -0.8930  -0.8610  -0.8262  -0.7525
    -0.7257  -0.6849  -0.6818  -0.6110  -0.5458  -0.4944  -0.4598  -0.4146
    -0.2769  -0.2334  -0.2130  -0.1472  -0.1135  -0.0285   0.0257   0.1597
     5.6421   5.7988   5.9642   6.0254   6.1613   6.2939   6.5302   6.6605
     6.7846   6.8634   6.9251   7.0448   7.0811   7.1163   7.2216   7.2944
     7.3014   7.4455   7.6236   7.7371   7.8312   7.8682   7.9362   7.9964
     8.0151   8.1488   8.1659   8.2729   8.3910   8.4200   8.5619   8.6049
     8.7241   8.7879   8.8665   8.9493   9.0422   9.2677   9.4434   9.5234
     9.5452   9.5826   9.6260   9.6791   9.7218   9.7734   9.8650   9.8674
    10.0177  10.1235  10.1428  10.2065  10.2660  10.3412  10.3648  10.3860
    10.4346  10.4800  10.5435  10.5756  10.6203  10.6386  10.6840  10.7360
    10.7616  10.8347  10.8689  10.9065  10.9331  11.0333  11.0749  11.0908
    11.1271  11.1644  11.1989  11.2264  11.3052  11.3435  11.4127  11.4380
    11.5138  11.5822  11.5997  11.6273  11.6690  11.7264  11.8262  11.9000
    11.9317  11.9850  12.0592  12.1155  12.5401  12.5902  12.6137  12.6379
    13.5893  14.0321  14.2749  14.4745  14.7355  14.7729  15.1971  15.2064
    15.2565  15.5177  15.6337  15.8034  15.9682  16.0671  16.1633  16.3083
    16.3577  16.4174  16.5248  16.5900  16.7315  16.7531  16.8709  16.9159
    16.9427  16.9997  17.1107  17.1734  17.2487  17.2962  17.3367  17.3860
    17.4343  17.4710  17.4815  17.5656  17.6331  17.7145  17.7661  17.7830
    17.9079  17.9504

          k =-0.5000 0.0000 0.5000 ( 29116 PWs)   bands (ev):

   -43.0636 -42.8548 -42.7552 -42.6904 -42.5874 -42.4600 -42.3996 -42.3660
   -42.3374 -42.3011 -42.2443 -42.1809 -19.5158 -19.4541 -19.3944 -19.3220
   -19.2604 -19.2460 -19.1921 -19.1885 -19.1637 -19.1220 -19.0867 -19.0715
   -19.0318 -18.9955 -18.9674 -18.9427 -18.9186 -18.9007 -18.8807 -18.8656
   -18.8262 -18.7918 -18.7669 -18.7178 -18.6962 -18.6766 -18.6292 -18.6187
   -18.5953 -18.5756 -18.5669 -18.5308 -18.4831 -18.4608 -18.4310 -18.3712
    -3.2818  -3.2346  -2.7087  -2.5388  -1.9245  -1.8972  -1.8097  -1.7030
    -1.5715  -1.3795  -1.3090  -1.2443  -1.0087  -0.8707  -0.8678  -0.7877
    -0.7452  -0.7070  -0.6026  -0.5033  -0.4553  -0.4014  -0.3813  -0.3303
    -0.2989  -0.2489  -0.1902  -0.1596  -0.1392  -0.0784   0.0186   0.0872
     5.6997   5.8799   6.0187   6.2374   6.3174   6.4963   6.6512   6.7335
     6.7638   6.7989   6.8743   6.9276   6.9836   7.0241   7.0592   7.1126
     7.2704   7.3459   7.4946   7.5818   7.6437   7.7143   7.7873   7.8956
     7.9483   8.0686   8.1058   8.1550   8.3810   8.5677   8.6966   8.7190
     8.9835   9.0243   9.1062   9.2571   9.2919   9.3429   9.3898   9.4585
     9.4909   9.5179   9.5710   9.6717   9.8124   9.8669   9.9512   9.9793
    10.0353  10.0624  10.0837  10.1206  10.1595  10.1757  10.2334  10.2779
    10.4019  10.4357  10.5090  10.5437  10.5723  10.6710  10.6829  10.7121
    10.7675  10.7973  10.8431  10.9157  10.9660  10.9823  11.0103  11.0897
    11.1069  11.2116  11.2832  11.3205  11.3794  11.4008  11.4448  11.4777
    11.5350  11.5853  11.6223  11.6752  11.7221  11.7483  11.8097  11.8238
    11.9513  11.9546  11.9788  12.0131  12.2074  12.2855  12.4734  12.6376
    14.3385  14.4504  14.5345  14.6016  14.7273  14.8871  15.1913  15.2615
    15.3971  15.5548  15.6192  15.7845  15.8429  15.9311  15.9537  16.0637
    16.1032  16.1745  16.2828  16.3088  16.5747  16.6621  16.7890  16.8493
    16.9044  17.0069  17.0504  17.1837  17.2437  17.2876  17.3578  17.3814
    17.4707  17.4795  17.5119  17.5688  17.6843  17.7580  17.9445  18.1049
    18.2046  18.2388

          k =-0.5000 0.5000 0.0000 ( 29116 PWs)   bands (ev):

   -43.0636 -42.8548 -42.7552 -42.6905 -42.5874 -42.4599 -42.3993 -42.3665
   -42.3381 -42.2999 -42.2446 -42.1809 -19.5158 -19.4540 -19.3943 -19.3223
   -19.2638 -19.2436 -19.1920 -19.1876 -19.1651 -19.1274 -19.0812 -19.0751
   -19.0220 -18.9977 -18.9541 -18.9491 -18.9154 -18.8991 -18.8799 -18.8633
   -18.8319 -18.8145 -18.7601 -18.7177 -18.7016 -18.6730 -18.6338 -18.6012
   -18.5987 -18.5819 -18.5638 -18.5334 -18.4837 -18.4597 -18.4313 -18.3692
    -3.1970  -3.0646  -2.9609  -2.8879  -1.8554  -1.6862  -1.5751  -1.5358
    -1.4659  -1.3303  -1.3050  -1.2482  -1.0146  -1.0012  -0.9567  -0.8034
    -0.7677  -0.7076  -0.6467  -0.5893  -0.4909  -0.4639  -0.3945  -0.3819
    -0.3129  -0.3022  -0.2220  -0.1682  -0.0942  -0.0498   0.0188   0.1360
     5.7744   5.8328   6.1389   6.2231   6.2469   6.3582   6.4450   6.5030
     6.9048   6.9921   7.0081   7.0410   7.1467   7.1507   7.2272   7.2761
     7.3134   7.3476   7.4484   7.4979   7.5379   7.6117   7.6836   7.7264
     7.8070   7.8775   7.9750   8.1549   8.3305   8.5701   8.6257   8.7361
     9.0295   9.1190   9.2050   9.2109   9.3252   9.3813   9.4755   9.5140
     9.6164   9.6899   9.7199   9.8559   9.9218   9.9398   9.9559   9.9929
    10.0244  10.0572  10.1595  10.1689  10.1991  10.2406  10.3347  10.3673
    10.3938  10.4658  10.5132  10.5226  10.5500  10.6058  10.6442  10.6634
    10.7046  10.7569  10.8097  10.8758  10.8963  10.9441  10.9500  11.0066
    11.0459  11.1284  11.2001  11.2044  11.3208  11.3689  11.4012  11.4195
    11.4999  11.5094  11.5748  11.6121  11.6422  11.7349  11.7595  11.8532
    11.8948  11.9029  11.9790  12.0771  12.3381  12.3885  12.5594  12.5796
    14.3791  14.5794  14.6558  14.7797  14.9455  14.9548  15.0091  15.1054
    15.3106  15.3235  15.3983  15.6681  15.7906  15.9016  16.0458  16.1489
    16.1705  16.1895  16.2458  16.3571  16.4002  16.5949  16.6203  16.7461
    16.8795  16.9626  16.9985  17.2246  17.2867  17.3127  17.3854  17.4218
    17.4810  17.6140  17.7156  17.7216  17.7782  17.8223  17.9772  18.0841
    18.1245  18.1654

     the Fermi energy is    14.9507 ev

!    total energy              =   -3903.43317151 Ry
     total all-electron energy =    -33714.925237 Ry
     estimated scf accuracy    <          4.4E-09 Ry
     smearing contrib. (-TS)   =      -0.00259908 Ry
     internal energy E=F+TS    =   -3903.43057243 Ry

     The total energy is F=E-TS. E is the sum of the following terms:
     one-electron contribution =    -619.65863225 Ry
     hartree contribution      =     561.36708831 Ry
     xc contribution           =    -467.89523888 Ry
     ewald contribution        =   -1644.77142315 Ry
     one-center paw contrib.   =   -1732.47236646 Ry

     convergence has been achieved in  20 iterations

     Forces acting on atoms (cartesian axes, Ry/au):

     atom    1 type  1   force =     0.02203836    0.02090212    0.02450251
     atom    2 type  2   force =    -0.00174877    0.02055049    0.03122783
     atom    3 type  3   force =     0.03611928   -0.00312791    0.00375987
     atom    4 type  2   force =     0.00697022    0.00485565   -0.00214915
     atom    5 type  3   force =    -0.00375625    0.02025849   -0.00012725
     atom    6 type  2   force =     0.03457414    0.03630959   -0.00052242
     atom    7 type  1   force =     0.00100462   -0.00085156    0.02018810
     atom    8 type  2   force =     0.01661927   -0.00167318    0.02702593
     atom    9 type  1   force =     0.02503072    0.02984670    0.00230597
     atom   10 type  2   force =    -0.00014135    0.02362580    0.00024551
     atom   11 type  3   force =     0.02662385   -0.00061941   -0.02588731
     atom   12 type  2   force =     0.00311217   -0.00128179   -0.02391838
     atom   13 type  1   force =     0.00000105    0.01560582   -0.02662118
     atom   14 type  2   force =     0.01867263    0.02854905   -0.02975413
     atom   15 type  1   force =    -0.00067138    0.00132155   -0.00050988
     atom   16 type  2   force =     0.02637948   -0.00050901   -0.00346431
     atom   17 type  1   force =     0.01609943   -0.00107158    0.02859608
     atom   18 type  2   force =    -0.00161990    0.00065199    0.02666366
     atom   19 type  3   force =     0.02381934   -0.02986190    0.00296783
     atom   20 type  2   force =     0.00431718   -0.02323546   -0.00036685
     atom   21 type  1   force =    -0.00063288   -0.00156043    0.00104727
     atom   22 type  2   force =     0.01776184   -0.00516703    0.00052418
     atom   23 type  1   force =     0.00329006   -0.01522235    0.02626144
     atom   24 type  2   force =     0.02908408   -0.02004246    0.03111586
     atom   25 type  3   force =     0.03093773   -0.00412687   -0.00095410
     atom   26 type  2   force =     0.00446576   -0.00480218    0.00076931
     atom   27 type  1   force =     0.01746924   -0.02246515   -0.02934783
     atom   28 type  2   force =    -0.00079263   -0.02000341   -0.03076620
     atom   29 type  1   force =     0.00018536   -0.00046583   -0.02541116
     atom   30 type  2   force =     0.01646096   -0.00050320   -0.03113062
     atom   31 type  3   force =    -0.00041162   -0.02155977   -0.00193643
     atom   32 type  2   force =     0.02579887   -0.03545776   -0.00254975
     atom   33 type  1   force =    -0.00357204    0.01506806    0.03096259
     atom   34 type  2   force =    -0.01881209    0.03090410    0.03034517
     atom   35 type  3   force =     0.00023130    0.00400581   -0.00089522
     atom   36 type  2   force =    -0.03730139    0.00318538   -0.00066994
     atom   37 type  3   force =    -0.02948399    0.01863129    0.00382514
     atom   38 type  2   force =    -0.00342193    0.03017737    0.00128800
     atom   39 type  1   force =    -0.01600821    0.00316012    0.03158591
     atom   40 type  2   force =     0.00169742   -0.00110007    0.03248268
     atom   41 type  3   force =    -0.00355634    0.02242422    0.00116619
     atom   42 type  2   force =    -0.03160439    0.02954293   -0.00149928
     atom   43 type  1   force =    -0.00323633    0.00029629   -0.03106061
     atom   44 type  2   force =    -0.02740000   -0.00097381   -0.03132491
     atom   45 type  1   force =    -0.01630959    0.01749522   -0.03067957
     atom   46 type  2   force =     0.00265476    0.02347885   -0.03389241
     atom   47 type  3   force =    -0.02617575    0.00110331   -0.00452767
     atom   48 type  2   force =    -0.00510121    0.00215622    0.00032820
     atom   49 type  1   force =     0.00096901    0.00146582    0.02618979
     atom   50 type  2   force =    -0.02035757   -0.00435940    0.02633565
     atom   51 type  1   force =     0.00036955   -0.02703116   -0.00272954
     atom   52 type  2   force =    -0.02478522   -0.02310638    0.00525018
     atom   53 type  1   force =    -0.01555866    0.00044230   -0.00317863
     atom   54 type  2   force =     0.00073363    0.00060161    0.00018611
     atom   55 type  3   force =    -0.02917752   -0.02885883    0.02527703
     atom   56 type  2   force =    -0.00292353   -0.02002669    0.02518143
     atom   57 type  3   force =    -0.00194844    0.00050695   -0.00058156
     atom   58 type  2   force =    -0.03283725    0.00053655    0.00031578
     atom   59 type  1   force =    -0.00140422   -0.02058048   -0.01912291
     atom   60 type  2   force =    -0.01996877   -0.02175480   -0.02153120
     atom   61 type  1   force =    -0.01545836    0.00335557   -0.02059412
     atom   62 type  2   force =     0.00194362   -0.00012760   -0.02928281
     atom   63 type  1   force =    -0.01990476   -0.02202839   -0.00204206
     atom   64 type  2   force =     0.00064742   -0.02745940    0.00110821

     Total force =     0.253368     Total SCF correction =     0.000166


     Computing stress (Cartesian axis) and pressure

          total   stress  (Ry/bohr**3)                   (kbar)     P=      142.42
   0.00093430  -0.00004729  -0.00009286          137.44       -6.96      -13.66
  -0.00004729   0.00092545  -0.00000258           -6.96      136.14       -0.38
  -0.00009286  -0.00000258   0.00104471          -13.66       -0.38      153.68

 
     init_run     :      2.67s CPU      4.75s WALL (       1 calls)
     electrons    :    117.42s CPU    120.17s WALL (       1 calls)
     forces       :      1.50s CPU      1.54s WALL (       1 calls)
     stress       :     13.89s CPU     14.02s WALL (       1 calls)

     Called by init_run:
     wfcinit      :      2.23s CPU      2.32s WALL (       1 calls)
     potinit      :      0.21s CPU      0.22s WALL (       1 calls)
     hinit0       :      0.13s CPU      2.08s WALL (       1 calls)

     Called by electrons:
     c_bands      :     98.86s CPU    100.71s WALL (      20 calls)
     sum_band     :     12.64s CPU     13.10s WALL (      20 calls)
     v_of_rho     :      0.73s CPU      0.75s WALL (      21 calls)
     newd         :      1.16s CPU      1.43s WALL (      21 calls)
     PAW_pot      :      3.34s CPU      3.43s WALL (      21 calls)
     mix_rho      :      0.89s CPU      0.95s WALL (      20 calls)

     Called by c_bands:
     init_us_2    :      1.59s CPU      1.61s WALL (      86 calls)
     init_us_2:cp :      1.59s CPU      1.61s WALL (      86 calls)
     cegterg      :     88.09s CPU     89.87s WALL (      40 calls)

     Called by *egterg:
     cdiaghg      :      7.35s CPU      7.48s WALL (     169 calls)
     h_psi        :     47.15s CPU     47.90s WALL (     171 calls)
     s_psi        :     11.81s CPU     11.90s WALL (     171 calls)
     g_psi        :      0.20s CPU      0.21s WALL (     129 calls)

     Called by h_psi:
     h_psi:calbec :     11.50s CPU     11.60s WALL (     171 calls)
     vloc_psi     :     23.23s CPU     23.61s WALL (     171 calls)
     add_vuspsi   :     11.94s CPU     12.07s WALL (     171 calls)

     General routines
     calbec       :     17.22s CPU     17.36s WALL (     221 calls)
     fft          :      0.35s CPU      0.36s WALL (     256 calls)
     ffts         :      0.44s CPU      0.45s WALL (     415 calls)
     fftw         :     23.91s CPU     24.30s WALL (   51430 calls)
 
     Parallel routines
 
     PWSCF        :   2m15.73s CPU   2m21.51s WALL

 
   This run was terminated on:  16: 4:22  11May2026            

=------------------------------------------------------------------------------=
   JOB DONE.
=------------------------------------------------------------------------------=
