
     Program PWSCF v.7.1 starts on 11May2026 at 16: 1:43 

     This program is part of the open-source Quantum ESPRESSO suite
     for quantum simulation of materials; please cite
         "P. Giannozzi et al., J. Phys.:Condens. Matter 21 395502 (2009);
         "P. Giannozzi et al., J. Phys.:Condens. Matter 29 465901 (2017);
         "P. Giannozzi et al., J. Chem. Phys. 152 154105 (2020);
          URL http://www.quantum-espresso.org", 
     in publications or presentations arising from this work. More details at
     http://www.quantum-espresso.org/quote

     Parallel version (MPI & OpenMP), running on      32 processor cores
     Number of MPI processes:                32
     Threads/MPI process:                     1

     MPI processes distributed on     1 nodes
     91363 MiB available memory on the printing compute node when the environment starts
 
     Reading input from TiAlN_x0625finalrelaxedresult8350175.in

     Current dimensions of program PWSCF are:
     Max number of different atomic species (ntypx) = 10
     Max number of k-points (npk) = 150000
     Max angular momentum in pseudopotentials (lmaxx) =  4
     file Al.pbe-n-kjpaw_psl.1.0.0.UPF: wavefunction(s)  3S 3P renormalized
     file N.pbe-n-kjpaw_psl.1.0.0.UPF: wavefunction(s)  2S renormalized
     file Ti.pbe-spn-kjpaw_psl.1.0.0.UPF: wavefunction(s)  3S 3P 3D renormalized
 
     K-points division:     npool     =       4
     R & G space division:  proc/nbgrp/npool/nimage =       8
     Subspace diagonalization in iterative solution of the eigenvalue problem:
     one sub-group per band group will be used
     scalapack distributed-memory algorithm (size of sub-group:  2*  2 procs)

 
     Parallelization info
     --------------------
     sticks:   dense  smooth     PW     G-vecs:    dense   smooth      PW
     Min         591     591    163                30777    30777    4379
     Max         594     594    164                30779    30779    4380
     Sum        4741    4741   1305               246225   246225   35033
 
     Using Slab Decomposition
 


     bravais-lattice index     =            0
     lattice parameter (alat)  =      15.7795  a.u.
     unit-cell volume          =    3929.0118 (a.u.)^3
     number of atoms/cell      =           64
     number of atomic types    =            3
     number of electrons       =       364.00
     number of Kohn-Sham states=          218
     kinetic-energy cutoff     =      60.0000  Ry
     charge density cutoff     =     240.0000  Ry
     scf convergence threshold =      1.0E-08
     mixing beta               =       0.2000
     number of iterations used =            8  local-TF  mixing
     Exchange-correlation= SLA  PW   PBX  PBC
                           (   1   4   3   4   0   0   0)

     celldm(1)=  15.779544  celldm(2)=   0.000000  celldm(3)=   0.000000
     celldm(4)=   0.000000  celldm(5)=   0.000000  celldm(6)=   0.000000

     crystal axes: (cart. coord. in units of alat)
               a(1) = (   1.000000   0.000000   0.000000 )  
               a(2) = (   0.000000   1.000000   0.000000 )  
               a(3) = (   0.000000   0.000000   1.000000 )  

     reciprocal axes: (cart. coord. in units 2 pi/alat)
               b(1) = (  1.000000  0.000000  0.000000 )  
               b(2) = (  0.000000  1.000000  0.000000 )  
               b(3) = (  0.000000  0.000000  1.000000 )  


     PseudoPot. # 1 for Al read from file:
     ../../../pseudo/Al.pbe-n-kjpaw_psl.1.0.0.UPF
     MD5 check sum: 502b6b27b9c6270cab5dd1084b96fa6d
     Pseudo is Projector augmented-wave + core cor, Zval =  3.0
     Generated using &quot;atomic&quot; code by A. Dal Corso  v.6.3
     Shape of augmentation charge: PSQ
     Using radial grid of 1135 points,  6 beta functions with: 
                l(1) =   0
                l(2) =   0
                l(3) =   1
                l(4) =   1
                l(5) =   2
                l(6) =   2
     Q(r) pseudized with 0 coefficients 


     PseudoPot. # 2 for N  read from file:
     ../../../pseudo/N.pbe-n-kjpaw_psl.1.0.0.UPF
     MD5 check sum: 14c48229446f9f2d411169a3abcbc3fa
     Pseudo is Projector augmented-wave + core cor, Zval =  5.0
     Generated using &quot;atomic&quot; code by A. Dal Corso  v.6.3
     Shape of augmentation charge: PSQ
     Using radial grid of 1085 points,  4 beta functions with: 
                l(1) =   0
                l(2) =   0
                l(3) =   1
                l(4) =   1
     Q(r) pseudized with 0 coefficients 


     PseudoPot. # 3 for Ti read from file:
     ../../../pseudo/Ti.pbe-spn-kjpaw_psl.1.0.0.UPF
     MD5 check sum: 01f69b0d8ba4438b2e03ac6ea4af1c0b
     Pseudo is Projector augmented-wave + core cor, Zval = 12.0
     Generated using &quot;atomic&quot; code by A. Dal Corso  v.6.2.2
     Shape of augmentation charge: PSQ
     Using radial grid of 1177 points,  6 beta functions with: 
                l(1) =   0
                l(2) =   0
                l(3) =   1
                l(4) =   1
                l(5) =   2
                l(6) =   2
     Q(r) pseudized with 0 coefficients 


     atomic species   valence    mass     pseudopotential
        Al             3.00    26.98200     Al( 1.00)
        N              5.00    14.00700     N ( 1.00)
        Ti            12.00    47.86700     Ti( 1.00)

     No symmetry found



   Cartesian axes

     site n.     atom                  positions (alat units)
         1           Al  tau(   1) = (   0.0035586   0.0045897  -0.0054779  )
         2           N   tau(   2) = (   0.2466781   0.0009532  -0.0067357  )
         3           Ti  tau(   3) = (  -0.0052268   0.2461529   0.2556419  )
         4           N   tau(   4) = (   0.2493258   0.2555955   0.2463449  )
         5           Ti  tau(   5) = (   0.2451961  -0.0004145   0.2516507  )
         6           N   tau(   6) = (   0.0003051  -0.0005355   0.2439892  )
         7           Al  tau(   7) = (   0.2474498   0.2477569  -0.0013466  )
         8           N   tau(   8) = (   0.0021917   0.2458471  -0.0032331  )
         9           Al  tau(   9) = (  -0.0005049  -0.0030249   0.5035477  )
        10           N   tau(  10) = (   0.2401624   0.0046920   0.5042302  )
        11           Ti  tau(  11) = (  -0.0066751   0.2552748   0.7321061  )
        12           N   tau(  12) = (   0.2509810   0.2499549   0.7442898  )
        13           Al  tau(  13) = (   0.2485826  -0.0003281   0.7439792  )
        14           N   tau(  14) = (  -0.0002838  -0.0039118   0.7454402  )
        15           Al  tau(  15) = (   0.2478342   0.2475292   0.4983625  )
        16           N   tau(  16) = (   0.0079512   0.2352814   0.4960600  )
        17           Al  tau(  17) = (   0.0018546   0.4918522  -0.0007502  )
        18           N   tau(  18) = (   0.2471857   0.4937846  -0.0019917  )
        19           Ti  tau(  19) = (   0.0028093   0.7447066   0.2535026  )
        20           N   tau(  20) = (   0.2574308   0.7322493   0.2389292  )
        21           Al  tau(  21) = (   0.2490942   0.4921284   0.2405307  )
        22           N   tau(  22) = (   0.0001378   0.4969455   0.2357547  )
        23           Al  tau(  23) = (   0.2488890   0.7420826  -0.0024709  )
        24           N   tau(  24) = (   0.0055503   0.7461322  -0.0064952  )
        25           Ti  tau(  25) = (  -0.0021811   0.4915097   0.4908350  )
        26           N   tau(  26) = (   0.2461477   0.4875894   0.4953465  )
        27           Al  tau(  27) = (   0.0007247   0.7431962   0.7435332  )
        28           N   tau(  28) = (   0.2497603   0.7406431   0.7472974  )
        29           Al  tau(  29) = (   0.2503006   0.4961110   0.7463036  )
        30           N   tau(  30) = (  -0.0003657   0.5025191   0.7503996  )
        31           Ti  tau(  31) = (   0.2466569   0.7391139   0.4888833  )
        32           N   tau(  32) = (  -0.0061188   0.7503892   0.5055279  )
        33           Al  tau(  33) = (   0.4921099   0.0007736  -0.0031249  )
        34           N   tau(  34) = (   0.7443993   0.0057212  -0.0073596  )
        35           Ti  tau(  35) = (   0.5011612   0.2391678   0.2564072  )
        36           N   tau(  36) = (   0.7412840   0.2599623   0.2356053  )
        37           Ti  tau(  37) = (   0.7440351   0.0052563   0.2521629  )
        38           N   tau(  38) = (   0.4946394  -0.0120344   0.2349045  )
        39           Al  tau(  39) = (   0.7417439   0.2487707  -0.0031090  )
        40           N   tau(  40) = (   0.4927704   0.2468907  -0.0054948  )
        41           Ti  tau(  41) = (   0.4966828   0.0044445   0.4865902  )
        42           N   tau(  42) = (   0.7503231  -0.0068040   0.5058093  )
        43           Al  tau(  43) = (   0.4935919   0.2463111   0.7472976  )
        44           N   tau(  44) = (   0.7356583   0.2513282   0.7486839  )
        45           Al  tau(  45) = (   0.7405677  -0.0024002   0.7432192  )
        46           N   tau(  46) = (   0.4951573  -0.0017836   0.7491925  )
        47           Ti  tau(  47) = (   0.7393825   0.2483707   0.4891770  )
        48           N   tau(  48) = (   0.4851681   0.2462341   0.5077580  )
        49           Al  tau(  49) = (   0.4942935   0.4933620  -0.0004969  )
        50           N   tau(  50) = (   0.7435922   0.4929177  -0.0014359  )
        51           Al  tau(  51) = (   0.4952768   0.7398358   0.2442286  )
        52           N   tau(  52) = (   0.7347911   0.7341119   0.2551109  )
        53           Al  tau(  53) = (   0.7415334   0.4966712   0.2425476  )
        54           N   tau(  54) = (   0.4956241   0.5000740   0.2391761  )
        55           Ti  tau(  55) = (   0.7493088   0.7489538   0.0088590  )
        56           N   tau(  56) = (   0.4929622   0.7421899  -0.0025422  )
        57           Ti  tau(  57) = (   0.4971176   0.4892363   0.4910595  )
        58           N   tau(  58) = (   0.7427822   0.5018723   0.4965729  )
        59           Al  tau(  59) = (   0.4949612   0.7435315   0.7442241  )
        60           N   tau(  60) = (   0.7407101   0.7411022   0.7411968  )
        61           Al  tau(  61) = (   0.7387595   0.4997347   0.7467285  )
        62           N   tau(  62) = (   0.4950084   0.4969523   0.7492959  )
        63           Al  tau(  63) = (   0.7412191   0.7426146   0.4985822  )
        64           N   tau(  64) = (   0.5003591   0.7426411   0.4975649  )

     number of k points=     8  Gaussian smearing, width (Ry)=  0.0050
                       cart. coord. in units 2pi/alat
        k(    1) = (   0.0000000   0.0000000   0.0000000), wk =   0.2500000
        k(    2) = (   0.0000000   0.0000000  -0.5000000), wk =   0.2500000
        k(    3) = (   0.0000000  -0.5000000  -0.5000000), wk =   0.2500000
        k(    4) = (  -0.5000000  -0.5000000  -0.5000000), wk =   0.2500000
        k(    5) = (  -0.5000000   0.0000000   0.0000000), wk =   0.2500000
        k(    6) = (   0.0000000  -0.5000000   0.0000000), wk =   0.2500000
        k(    7) = (  -0.5000000   0.0000000   0.5000000), wk =   0.2500000
        k(    8) = (  -0.5000000   0.5000000   0.0000000), wk =   0.2500000

     Dense  grid:   246225 G-vectors     FFT dimensions: (  80,  80,  80)

     Estimated max dynamical RAM per process >     192.05 MB

     Estimated total dynamical RAM >       5.83 GB

     Check: negative core charge=   -0.000017

     Initial potential from superposition of free atoms

     starting charge     363.9362, renormalised to     364.0000
     Starting wfcs are  328 randomized atomic wfcs
     Checking if some PAW data can be deallocated... 

     total cpu time spent up to now is        6.2 secs

     Self-consistent Calculation

     iteration #  1     ecut=    60.00 Ry     beta= 0.20
     Davidson diagonalization with overlap
     ethr =  1.00E-02,  avg # of iterations =  2.0

     total cpu time spent up to now is       12.0 secs

     total energy              =   -3905.45634717 Ry
     estimated scf accuracy    <      17.64406206 Ry

     iteration #  2     ecut=    60.00 Ry     beta= 0.20
     Davidson diagonalization with overlap
     ethr =  4.85E-03,  avg # of iterations =  1.0

     total cpu time spent up to now is       16.7 secs

     total energy              =   -3901.31128511 Ry
     estimated scf accuracy    <       9.92155728 Ry

     iteration #  3     ecut=    60.00 Ry     beta= 0.20
     Davidson diagonalization with overlap
     ethr =  2.73E-03,  avg # of iterations =  2.2

     total cpu time spent up to now is       23.2 secs

     total energy              =   -3903.52286251 Ry
     estimated scf accuracy    <       0.64527754 Ry

     iteration #  4     ecut=    60.00 Ry     beta= 0.20
     Davidson diagonalization with overlap
     ethr =  1.77E-04,  avg # of iterations =  9.6

     total cpu time spent up to now is       30.5 secs

     total energy              =   -3903.57976909 Ry
     estimated scf accuracy    <       0.47368460 Ry

     iteration #  5     ecut=    60.00 Ry     beta= 0.20
     Davidson diagonalization with overlap
     ethr =  1.30E-04,  avg # of iterations =  1.1

     total cpu time spent up to now is       35.4 secs

     total energy              =   -3903.53079576 Ry
     estimated scf accuracy    <       0.28130804 Ry

     iteration #  6     ecut=    60.00 Ry     beta= 0.20
     Davidson diagonalization with overlap
     ethr =  7.73E-05,  avg # of iterations =  1.0

     total cpu time spent up to now is       40.2 secs

     total energy              =   -3903.52712598 Ry
     estimated scf accuracy    <       0.06109238 Ry

     iteration #  7     ecut=    60.00 Ry     beta= 0.20
     Davidson diagonalization with overlap
     ethr =  1.68E-05,  avg # of iterations =  6.8

     total cpu time spent up to now is       48.2 secs

     total energy              =   -3903.53203944 Ry
     estimated scf accuracy    <       0.01383510 Ry

     iteration #  8     ecut=    60.00 Ry     beta= 0.20
     Davidson diagonalization with overlap
     ethr =  3.80E-06,  avg # of iterations =  9.1

     total cpu time spent up to now is       55.3 secs

     total energy              =   -3903.53225385 Ry
     estimated scf accuracy    <       0.00582494 Ry

     iteration #  9     ecut=    60.00 Ry     beta= 0.20
     Davidson diagonalization with overlap
     ethr =  1.60E-06,  avg # of iterations =  9.1

     total cpu time spent up to now is       62.8 secs

     total energy              =   -3903.53282493 Ry
     estimated scf accuracy    <       0.00214226 Ry

     iteration # 10     ecut=    60.00 Ry     beta= 0.20
     Davidson diagonalization with overlap
     ethr =  5.89E-07,  avg # of iterations =  2.0

     total cpu time spent up to now is       68.0 secs

     total energy              =   -3903.53266700 Ry
     estimated scf accuracy    <       0.00093528 Ry

     iteration # 11     ecut=    60.00 Ry     beta= 0.20
     Davidson diagonalization with overlap
     ethr =  2.57E-07,  avg # of iterations =  6.6

     total cpu time spent up to now is       75.8 secs

     total energy              =   -3903.53278624 Ry
     estimated scf accuracy    <       0.00024276 Ry

     iteration # 12     ecut=    60.00 Ry     beta= 0.20
     Davidson diagonalization with overlap
     ethr =  6.67E-08,  avg # of iterations =  2.8

     total cpu time spent up to now is       82.3 secs

     total energy              =   -3903.53281346 Ry
     estimated scf accuracy    <       0.00003491 Ry

     iteration # 13     ecut=    60.00 Ry     beta= 0.20
     Davidson diagonalization with overlap
     ethr =  9.59E-09,  avg # of iterations =  5.1

     total cpu time spent up to now is       89.8 secs

     total energy              =   -3903.53281819 Ry
     estimated scf accuracy    <       0.00001015 Ry

     iteration # 14     ecut=    60.00 Ry     beta= 0.20
     Davidson diagonalization with overlap
     ethr =  2.79E-09,  avg # of iterations =  2.0

     total cpu time spent up to now is       95.0 secs

     total energy              =   -3903.53281589 Ry
     estimated scf accuracy    <       0.00000600 Ry

     iteration # 15     ecut=    60.00 Ry     beta= 0.20
     Davidson diagonalization with overlap
     ethr =  1.65E-09,  avg # of iterations =  2.0

     total cpu time spent up to now is      100.5 secs

     total energy              =   -3903.53281610 Ry
     estimated scf accuracy    <       0.00000182 Ry

     iteration # 16     ecut=    60.00 Ry     beta= 0.20
     Davidson diagonalization with overlap
     ethr =  5.00E-10,  avg # of iterations =  2.2

     total cpu time spent up to now is      106.1 secs

     total energy              =   -3903.53281607 Ry
     estimated scf accuracy    <       0.00000062 Ry

     iteration # 17     ecut=    60.00 Ry     beta= 0.20
     Davidson diagonalization with overlap
     ethr =  1.71E-10,  avg # of iterations =  5.5

     total cpu time spent up to now is      113.4 secs

     total energy              =   -3903.53281613 Ry
     estimated scf accuracy    <       0.00000016 Ry

     iteration # 18     ecut=    60.00 Ry     beta= 0.20
     Davidson diagonalization with overlap
     ethr =  4.27E-11,  avg # of iterations =  5.4

     total cpu time spent up to now is      119.9 secs

     total energy              =   -3903.53281615 Ry
     estimated scf accuracy    <       0.00000006 Ry

     iteration # 19     ecut=    60.00 Ry     beta= 0.20
     Davidson diagonalization with overlap
     ethr =  1.63E-11,  avg # of iterations =  3.6

     total cpu time spent up to now is      126.1 secs

     total energy              =   -3903.53281616 Ry
     estimated scf accuracy    <       0.00000002 Ry

     iteration # 20     ecut=    60.00 Ry     beta= 0.20
     Davidson diagonalization with overlap
     ethr =  6.52E-12,  avg # of iterations =  3.6

     total cpu time spent up to now is      132.1 secs

     total energy              =   -3903.53281617 Ry
     estimated scf accuracy    <       0.00000001 Ry

     iteration # 21     ecut=    60.00 Ry     beta= 0.20
     Davidson diagonalization with overlap
     ethr =  3.32E-12,  avg # of iterations =  1.8

     total cpu time spent up to now is      137.2 secs

     End of self-consistent calculation

          k = 0.0000 0.0000 0.0000 ( 31031 PWs)   bands (ev):

   -44.3098 -43.9424 -43.7648 -43.7453 -43.6956 -43.5164 -43.4892 -43.4485
   -43.4386 -43.3898 -43.3104 -43.2778 -20.6725 -20.5919 -20.5479 -20.3570
   -20.2926 -20.2554 -20.2097 -20.1805 -20.1665 -20.1560 -20.1210 -20.0833
   -20.0592 -20.0343 -20.0138 -19.9945 -19.9521 -19.9304 -19.9207 -19.9032
   -19.8644 -19.8497 -19.7972 -19.7851 -19.7431 -19.7426 -19.7287 -19.6908
   -19.6878 -19.6353 -19.6180 -19.5881 -19.5543 -19.5400 -19.5048 -19.4555
    -4.2283  -3.0901  -2.9306  -2.8491  -2.7680  -2.7185  -2.6612  -1.9855
    -1.9429  -1.8516  -1.7803  -1.7705  -1.7321  -1.6142  -1.6044  -1.5629
    -1.5500  -1.4902  -1.3823  -1.3710  -1.3404  -1.2651  -1.2150  -1.1904
    -1.1066  -1.0721  -0.8772  -0.7927  -0.7463  -0.7366  -0.6321  -0.6166
     4.5243   4.7839   4.8883   5.1160   6.0610   6.0706   6.1194   6.1903
     6.2045   6.2979   6.3997   6.4819   6.5731   6.6405   6.7273   6.8412
     6.9161   6.9647   7.0864   7.1161   7.1883   7.2438   7.2832   7.3130
     7.3795   7.5022   7.5462   7.5830   7.6280   7.6854   7.7720   7.8683
     7.9517   8.0871   8.1190   8.2108   8.2684   8.3362   8.3809   8.4914
     8.5865   8.6289   8.6935   8.7060   8.7344   8.7871   8.8122   8.8478
     8.8959   8.9926   9.0288   9.0859   9.1966   9.2698   9.3923   9.4965
     9.6418   9.7181   9.7841   9.8241   9.9092   9.9348   9.9679  10.0380
    10.0635  10.0871  10.0932  10.1451  10.1678  10.2146  10.2642  10.3300
    10.5407  10.5676  10.6192  10.6848  10.7107  10.7668  10.7969  10.8155
    10.8264  10.8648  10.8840  10.9187  10.9341  10.9694  11.0218  11.1304
    11.1707  11.1793  11.2195  11.2411  11.2762  12.1701  12.1765  12.2323
    12.2534  12.6580  12.7027  13.3863  13.4502  13.4988  13.8209  13.9055
    14.4702  14.5424  14.7432  14.8566  15.1017  15.1196  15.2500  15.3717
    15.4754  15.4825  15.5564  15.6501  15.6550  15.7284  15.7723  15.8070
    15.8639  15.8992  15.9060  16.0006  16.0571  16.1533  16.1854  16.1980
    16.2437  16.2610  16.2945  16.3351  16.3810  16.4170  16.4553  16.5134
    16.5250  16.5956

          k = 0.0000 0.0000-0.5000 ( 30814 PWs)   bands (ev):

   -44.3098 -43.9423 -43.7648 -43.7453 -43.6956 -43.5164 -43.4891 -43.4485
   -43.4386 -43.3898 -43.3104 -43.2777 -20.6725 -20.5919 -20.5478 -20.3570
   -20.2925 -20.2554 -20.2090 -20.1805 -20.1667 -20.1559 -20.1209 -20.0833
   -20.0592 -20.0342 -20.0138 -19.9945 -19.9521 -19.9304 -19.9208 -19.9031
   -19.8654 -19.8496 -19.7972 -19.7850 -19.7433 -19.7426 -19.7288 -19.6908
   -19.6880 -19.6350 -19.6180 -19.5881 -19.5540 -19.5401 -19.5047 -19.4555
    -3.9454  -3.7133  -2.7396  -2.7187  -2.6262  -2.5793  -2.4886  -2.3858
    -2.1499  -2.1399  -1.9274  -1.7354  -1.6788  -1.6561  -1.5441  -1.5015
    -1.4433  -1.4273  -1.3846  -1.3600  -1.3503  -1.2188  -1.1807  -1.0531
    -1.0284  -0.9518  -0.8531  -0.8423  -0.8018  -0.7658  -0.6517  -0.6304
     5.0736   5.2493   5.2639   5.3923   5.5221   5.6068   5.8051   5.8394
     6.0916   6.1004   6.3112   6.3774   6.4516   6.6255   6.7516   6.7805
     6.8268   6.9339   6.9924   7.0101   7.1263   7.2563   7.2874   7.3733
     7.4081   7.4330   7.5212   7.5312   7.5944   7.6482   7.7696   7.8340
     7.8883   7.9012   8.0516   8.0860   8.2048   8.2950   8.6773   8.7143
     8.7707   8.7833   8.8164   8.8302   8.8585   8.9577   9.0709   9.1198
     9.2143   9.2823   9.3234   9.3742   9.5043   9.5269   9.6037   9.6582
     9.6658   9.6772   9.7465   9.7782   9.7931   9.8161   9.8703   9.8915
     9.9467  10.0073  10.0194  10.0702  10.1384  10.1770  10.2180  10.2482
    10.3146  10.3435  10.3758  10.4142  10.4812  10.5385  10.6732  10.7018
    10.7201  10.7257  10.8656  10.8793  10.9464  11.0417  11.1130  11.1419
    11.1736  11.2023  11.2424  11.2737  11.6227  11.6444  11.6759  11.6864
    12.2664  13.2726  13.3211  13.4062  13.8198  13.9912  14.1530  14.1834
    14.5051  14.5771  14.6863  14.8172  14.9535  15.0478  15.1153  15.1423
    15.1758  15.4019  15.4348  15.4928  15.5949  15.6064  15.7171  15.7920
    15.8194  15.8392  15.8771  15.9235  16.0294  16.0794  16.1507  16.2298
    16.2458  16.3022  16.3394  16.4162  16.4471  16.4709  16.5656  16.5975
    16.6477  16.6943

          k = 0.0000-0.5000-0.5000 ( 30688 PWs)   bands (ev):

   -44.3098 -43.9423 -43.7646 -43.7455 -43.6955 -43.5161 -43.4896 -43.4485
   -43.4381 -43.3899 -43.3104 -43.2777 -20.6725 -20.5919 -20.5478 -20.3570
   -20.2919 -20.2513 -20.2051 -20.1800 -20.1649 -20.1601 -20.1234 -20.0787
   -20.0639 -20.0346 -20.0262 -19.9962 -19.9555 -19.9269 -19.9176 -19.9055
   -19.8717 -19.8268 -19.7968 -19.7914 -19.7516 -19.7428 -19.7266 -19.6885
   -19.6787 -19.6341 -19.6177 -19.5917 -19.5543 -19.5402 -19.5073 -19.4558
    -3.6840  -3.5066  -3.4034  -3.1886  -2.4745  -2.2880  -2.2593  -2.2474
    -2.1415  -2.0746  -2.0578  -1.9725  -1.6965  -1.6770  -1.6486  -1.5502
    -1.4379  -1.3330  -1.3147  -1.2796  -1.2426  -1.1928  -1.0676  -1.0413
    -1.0148  -0.9501  -0.9187  -0.8939  -0.8192  -0.7879  -0.6938  -0.6267
     5.1204   5.3209   5.3606   5.5407   5.7011   5.8754   5.9877   6.1881
     6.2005   6.2453   6.2869   6.3590   6.4259   6.4806   6.5117   6.5613
     6.6386   6.6595   6.7438   6.7894   6.8443   6.9257   6.9831   7.0389
     7.1182   7.2978   7.3429   7.5582   7.5944   7.7281   7.7917   7.9558
     8.0103   8.2172   8.3597   8.4858   8.5092   8.6557   8.7109   8.7276
     8.7723   8.8115   8.8475   8.9288   8.9374   9.0519   9.0685   9.1089
     9.1419   9.1617   9.2824   9.2874   9.3387   9.3532   9.4462   9.4847
     9.6453   9.6901   9.6936   9.7511   9.8195   9.8987   9.9223   9.9823
    10.0397  10.0540  10.1235  10.1708  10.2364  10.2709  10.2875  10.3158
    10.3651  10.3914  10.4519  10.5347  10.6102  10.6255  10.6468  10.7009
    10.7430  10.7872  10.8065  10.8354  10.8890  10.9049  10.9112  10.9992
    11.0115  11.0760  11.0876  11.1338  11.3375  11.4237  11.6324  11.6985
    13.2081  13.4045  13.5468  13.7190  13.7744  13.8565  14.2143  14.2608
    14.4105  14.5100  14.6121  14.7007  14.8310  14.9120  14.9859  15.0417
    15.0455  15.1273  15.2455  15.3805  15.4504  15.5644  15.6156  15.6508
    15.7097  15.7296  15.9356  16.0037  16.0433  16.1035  16.1522  16.2164
    16.2527  16.3219  16.3789  16.4270  16.4883  16.6500  16.6918  16.8024
    16.8906  16.9943

          k =-0.5000-0.5000-0.5000 ( 30688 PWs)   bands (ev):

   -44.3098 -43.9423 -43.7646 -43.7455 -43.6955 -43.5165 -43.4893 -43.4485
   -43.4381 -43.3899 -43.3104 -43.2778 -20.6725 -20.5918 -20.5478 -20.3571
   -20.2925 -20.2509 -20.2019 -20.1809 -20.1713 -20.1571 -20.1211 -20.0779
   -20.0518 -20.0462 -20.0211 -19.9932 -19.9575 -19.9349 -19.9236 -19.8878
   -19.8729 -19.8585 -19.7954 -19.7826 -19.7454 -19.7287 -19.7239 -19.7016
   -19.6783 -19.6346 -19.6183 -19.5938 -19.5547 -19.5399 -19.5043 -19.4559
    -3.4674  -3.3093  -3.1575  -3.1020  -3.0397  -2.9862  -2.7269  -2.6530
    -1.8273  -1.7508  -1.7144  -1.6649  -1.5178  -1.5034  -1.4415  -1.4113
    -1.3503  -1.3380  -1.2508  -1.2252  -1.2027  -1.1716  -1.1184  -1.1038
    -1.0980  -1.0232  -0.9814  -0.9627  -0.9437  -0.8972  -0.8332  -0.7584
     5.5084   5.5710   5.6352   5.6965   5.6988   5.7843   5.7967   5.9067
     5.9799   6.0025   6.0305   6.1977   6.2783   6.3099   6.3999   6.5235
     6.5579   6.6439   6.6717   6.8589   6.8788   6.9139   7.0114   7.2746
     7.6972   7.7580   7.8320   7.9541   7.9700   8.0085   8.1108   8.1411
     8.1801   8.2290   8.2880   8.3512   8.4119   8.4547   8.5156   8.5712
     8.6086   8.6429   8.6599   8.6890   8.7264   8.7716   8.8176   8.8599
     8.9313   8.9402   9.0568   9.1076   9.1348   9.2108   9.3442   9.5187
     9.5450   9.5710   9.6155   9.6868   9.7614   9.7977   9.8892   9.9393
    10.0295  10.0531  10.0767  10.1100  10.1365  10.1781  10.2612  10.3342
    10.3615  10.3873  10.4775  10.5291  10.7004  10.7109  10.8014  10.8514
    10.8716  10.9039  10.9453  11.0030  11.0113  11.0984  11.1246  11.1994
    11.2449  11.3089  11.3371  11.3797  11.4099  11.5213  11.5430  11.5687
    13.5092  13.6270  13.7242  13.8786  13.9461  13.9770  14.0427  14.1146
    14.2431  14.2765  14.3517  14.5400  14.5737  14.7376  14.8651  14.9352
    14.9862  15.0202  15.1085  15.1684  15.2476  15.3401  15.4237  15.4741
    15.5705  15.5812  15.9573  16.0010  16.1104  16.1947  16.2793  16.3197
    16.4180  16.4204  16.4878  16.5587  16.7982  16.8909  16.9791  17.0383
    17.1557  17.2058

          k =-0.5000 0.0000 0.0000 ( 30814 PWs)   bands (ev):

   -44.3098 -43.9423 -43.7648 -43.7453 -43.6955 -43.5168 -43.4887 -43.4485
   -43.4385 -43.3898 -43.3104 -43.2778 -20.6725 -20.5919 -20.5478 -20.3570
   -20.2920 -20.2529 -20.2021 -20.1798 -20.1750 -20.1506 -20.1207 -20.0815
   -20.0524 -20.0468 -20.0158 -19.9976 -19.9606 -19.9418 -19.9269 -19.8837
   -19.8720 -19.8450 -19.7927 -19.7860 -19.7460 -19.7298 -19.7272 -19.6957
   -19.6821 -19.6324 -19.6184 -19.5908 -19.5570 -19.5397 -19.5064 -19.4568
    -3.9525  -3.7022  -2.8927  -2.6654  -2.6406  -2.5575  -2.4221  -2.2942
    -2.2383  -2.0647  -1.9548  -1.7804  -1.7236  -1.5542  -1.5247  -1.4987
    -1.4701  -1.4058  -1.3113  -1.2797  -1.2447  -1.2251  -1.1199  -1.0875
    -1.0280  -0.9687  -0.9350  -0.9100  -0.8526  -0.7978  -0.7559  -0.6667
     5.1362   5.1858   5.2293   5.3876   5.4928   5.5841   5.7928   6.0568
     6.1494   6.2153   6.2948   6.3531   6.3890   6.5585   6.6100   6.6645
     6.6965   6.7670   6.8592   6.9534   7.1051   7.1768   7.2886   7.3444
     7.4262   7.4840   7.5250   7.6319   7.6940   7.7649   7.8457   7.8981
     7.9209   7.9594   8.0970   8.1286   8.2444   8.3154   8.8108   8.8408
     8.8842   8.9116   8.9695   8.9864   9.0223   9.0576   9.2037   9.2804
     9.3288   9.3922   9.4437   9.4628   9.5075   9.5157   9.5482   9.5731
     9.6171   9.6611   9.7199   9.7406   9.7968   9.8271   9.8741   9.9156
     9.9415  10.0038  10.0214  10.0697  10.1137  10.1290  10.1812  10.2778
    10.2779  10.3334  10.3442  10.3750  10.4233  10.4570  10.5014  10.5489
    10.6121  10.6726  10.7014  10.7341  10.7931  10.8575  10.9197  10.9417
    10.9759  11.1382  11.1847  11.2616  11.6236  11.6775  11.6939  11.7919
    12.8316  13.0382  13.4742  13.5873  13.6937  13.9243  14.1338  14.1841
    14.3869  14.4447  14.5197  14.6800  14.7405  14.8637  15.0319  15.0550
    15.2275  15.2814  15.4319  15.5068  15.5649  15.6112  15.6296  15.7527
    15.8425  15.8809  16.0104  16.0904  16.1738  16.1852  16.1973  16.2485
    16.2867  16.3146  16.3747  16.3933  16.4689  16.4855  16.5219  16.5435
    16.7625  16.8557

          k = 0.0000-0.5000 0.0000 ( 30814 PWs)   bands (ev):

   -44.3098 -43.9423 -43.7646 -43.7455 -43.6955 -43.5161 -43.4896 -43.4486
   -43.4381 -43.3899 -43.3104 -43.2777 -20.6725 -20.5919 -20.5478 -20.3570
   -20.2920 -20.2513 -20.2059 -20.1800 -20.1649 -20.1602 -20.1232 -20.0787
   -20.0639 -20.0347 -20.0262 -19.9962 -19.9556 -19.9269 -19.9176 -19.9051
   -19.8716 -19.8265 -19.7968 -19.7913 -19.7513 -19.7428 -19.7266 -19.6885
   -19.6786 -19.6344 -19.6176 -19.5917 -19.5547 -19.5402 -19.5074 -19.4559
    -3.9394  -3.7350  -2.7688  -2.7263  -2.6600  -2.5307  -2.4375  -2.3076
    -2.2221  -2.1512  -1.8813  -1.8125  -1.6626  -1.5974  -1.5598  -1.5082
    -1.4968  -1.4340  -1.3565  -1.3168  -1.2574  -1.1867  -1.0930  -1.0851
    -1.0042  -0.9737  -0.9137  -0.8873  -0.8413  -0.8104  -0.7008  -0.6512
     4.9703   5.2133   5.3723   5.4543   5.5832   5.6122   5.9054   5.9345
     6.1887   6.2533   6.3223   6.4090   6.4758   6.5085   6.5696   6.6422
     6.6954   6.7418   6.9299   6.9585   7.0411   7.1651   7.2219   7.2522
     7.2814   7.3891   7.5192   7.5373   7.6078   7.7168   7.7889   7.8518
     7.9809   8.0480   8.1236   8.1861   8.2372   8.4635   8.6746   8.7855
     8.8013   8.8716   8.9199   8.9406   8.9889   9.0481   9.0661   9.1070
     9.1860   9.3048   9.4584   9.4867   9.5226   9.5579   9.6048   9.6257
     9.6588   9.6963   9.7519   9.7754   9.8258   9.8674   9.8842   9.8961
     9.9312   9.9900  10.0512  10.0986  10.1382  10.2261  10.2368  10.2658
    10.3018  10.3188  10.3746  10.4254  10.4700  10.5214  10.5413  10.6389
    10.6648  10.7282  10.7485  10.7862  10.8213  10.8745  10.9261  10.9719
    11.0802  11.1184  11.1773  11.2649  11.6155  11.6576  11.7235  11.7690
    12.7345  13.1992  13.2878  13.5524  13.7450  13.7974  14.2046  14.2272
    14.2394  14.5054  14.6186  14.6763  14.8755  14.9645  15.1094  15.1807
    15.2225  15.3219  15.3962  15.4693  15.5910  15.6309  15.7217  15.7514
    15.7690  15.8266  15.9803  15.9944  16.1006  16.1286  16.1906  16.2543
    16.3092  16.3318  16.3462  16.3880  16.3989  16.4388  16.4979  16.5898
    16.6555  16.7346

          k =-0.5000 0.0000 0.5000 ( 30688 PWs)   bands (ev):

   -44.3098 -43.9423 -43.7648 -43.7453 -43.6955 -43.5168 -43.4887 -43.4485
   -43.4385 -43.3898 -43.3104 -43.2778 -20.6725 -20.5919 -20.5478 -20.3570
   -20.2919 -20.2529 -20.2016 -20.1798 -20.1750 -20.1505 -20.1206 -20.0815
   -20.0524 -20.0468 -20.0157 -19.9978 -19.9605 -19.9418 -19.9269 -19.8842
   -19.8719 -19.8453 -19.7928 -19.7859 -19.7464 -19.7299 -19.7273 -19.6956
   -19.6822 -19.6322 -19.6184 -19.5908 -19.5567 -19.5398 -19.5064 -19.4567
    -3.7025  -3.4352  -3.4104  -3.2429  -2.4125  -2.3409  -2.3096  -2.2438
    -2.1697  -2.0762  -2.0538  -2.0028  -1.7047  -1.5730  -1.5465  -1.4681
    -1.4249  -1.3800  -1.2991  -1.2742  -1.2449  -1.1985  -1.1312  -1.0437
    -0.9969  -0.9565  -0.9391  -0.9053  -0.8437  -0.7851  -0.7239  -0.6625
     5.1769   5.2860   5.3821   5.5799   5.6727   5.8113   5.9693   6.0688
     6.0868   6.1725   6.2355   6.2713   6.3454   6.3647   6.4647   6.5760
     6.7094   6.7405   6.7921   6.8795   6.9249   6.9443   7.1153   7.1438
     7.1698   7.2536   7.3705   7.4371   7.6280   7.7526   7.9628   7.9962
     8.2332   8.3292   8.4218   8.4656   8.5847   8.6678   8.7434   8.7525
     8.7743   8.8135   8.8505   8.8558   8.9748   9.0846   9.1126   9.1533
     9.2000   9.2098   9.3120   9.3678   9.3741   9.3959   9.4391   9.4936
     9.6205   9.6374   9.7280   9.7654   9.7801   9.8253   9.8463   9.8906
     9.9605   9.9867  10.0326  10.0896  10.1093  10.1786  10.2236  10.2601
    10.3152  10.3928  10.4789  10.5009  10.5897  10.5988  10.6416  10.6538
    10.6825  10.7561  10.7779  10.8300  10.8495  10.9285  10.9477  10.9993
    11.0320  11.0564  11.0711  11.1228  11.3693  11.4341  11.5681  11.7732
    13.4055  13.5100  13.5472  13.6402  13.7043  13.9185  14.1868  14.2553
    14.3849  14.5154  14.5472  14.6858  14.7515  14.7975  14.9172  14.9896
    15.0574  15.1258  15.2039  15.2262  15.4288  15.5383  15.6418  15.6895
    15.7263  15.8545  15.9006  15.9952  16.1448  16.1559  16.2303  16.2363
    16.3055  16.3258  16.3960  16.4246  16.4732  16.5430  16.6454  16.8448
    16.9412  16.9673

          k =-0.5000 0.5000 0.0000 ( 30688 PWs)   bands (ev):

   -44.3098 -43.9423 -43.7646 -43.7455 -43.6955 -43.5165 -43.4893 -43.4485
   -43.4381 -43.3899 -43.3104 -43.2778 -20.6725 -20.5919 -20.5478 -20.3571
   -20.2925 -20.2509 -20.2027 -20.1809 -20.1713 -20.1570 -20.1210 -20.0778
   -20.0517 -20.0462 -20.0210 -19.9932 -19.9575 -19.9349 -19.9236 -19.8881
   -19.8724 -19.8580 -19.7954 -19.7823 -19.7454 -19.7287 -19.7236 -19.7016
   -19.6783 -19.6349 -19.6182 -19.5937 -19.5551 -19.5399 -19.5043 -19.4560
    -3.6969  -3.4617  -3.3957  -3.2683  -2.4746  -2.3700  -2.2417  -2.1993
    -2.1402  -2.1171  -1.9432  -1.9224  -1.7174  -1.6074  -1.5440  -1.5243
    -1.4573  -1.4259  -1.3381  -1.2270  -1.1918  -1.1219  -1.0677  -1.0227
    -1.0083  -0.9934  -0.9506  -0.9071  -0.8693  -0.8155  -0.7670  -0.7484
     5.1517   5.2489   5.4081   5.6082   5.6810   5.7572   5.8439   5.9215
     6.2787   6.3032   6.3489   6.4092   6.4760   6.4962   6.5121   6.5798
     6.6111   6.6505   6.7575   6.8263   6.8721   6.9586   6.9772   7.0577
     7.1650   7.1997   7.2756   7.4348   7.5522   7.7711   7.7880   7.9253
     8.3205   8.4007   8.4828   8.5061   8.6096   8.6379   8.6936   8.7843
     8.8522   8.8986   8.9772   9.1108   9.1397   9.1598   9.1920   9.2226
     9.2454   9.3012   9.3319   9.3781   9.4424   9.4802   9.5036   9.5468
     9.6040   9.6493   9.6730   9.7186   9.7578   9.7694   9.8227   9.8473
     9.9336   9.9504  10.0099  10.0333  10.0973  10.1346  10.1907  10.2118
    10.2494  10.2835  10.3144  10.3524  10.4843  10.5127  10.5739  10.5885
    10.6446  10.6879  10.7639  10.7678  10.8042  10.8351  10.8621  11.0036
    11.0321  11.1259  11.1523  11.2793  11.4744  11.5091  11.6742  11.6969
    13.4522  13.6145  13.7022  13.8264  13.9814  14.0170  14.0692  14.1188
    14.2312  14.2947  14.3174  14.5902  14.6117  14.7842  14.9425  15.0320
    15.0661  15.1581  15.2034  15.2823  15.3783  15.4169  15.4786  15.5941
    15.7194  15.8156  15.9340  16.1287  16.1530  16.1914  16.2665  16.3546
    16.3846  16.4007  16.4134  16.5226  16.5604  16.6223  16.7379  16.7768
    16.9107  16.9958

     the Fermi energy is    13.9945 ev

!    total energy              =   -3903.53281616 Ry
     total all-electron energy =    -33715.024882 Ry
     estimated scf accuracy    <          5.1E-09 Ry
     smearing contrib. (-TS)   =      -0.00221792 Ry
     internal energy E=F+TS    =   -3903.53059824 Ry

     The total energy is F=E-TS. E is the sum of the following terms:
     one-electron contribution =    -697.97359375 Ry
     hartree contribution      =     587.34984025 Ry
     xc contribution           =    -464.86899449 Ry
     ewald contribution        =   -1595.80803647 Ry
     one-center paw contrib.   =   -1732.22981378 Ry

     convergence has been achieved in  21 iterations

     Forces acting on atoms (cartesian axes, Ry/au):

     atom    1 type  1   force =    -0.01110906   -0.01025444   -0.01422591
     atom    2 type  2   force =     0.00055952   -0.01224187   -0.01906491
     atom    3 type  3   force =    -0.02310087    0.00318001   -0.00327516
     atom    4 type  2   force =    -0.00636892   -0.00430187    0.00203649
     atom    5 type  3   force =     0.00416018   -0.01337185    0.00029670
     atom    6 type  2   force =    -0.02268478   -0.02460329    0.00048616
     atom    7 type  1   force =     0.00038132    0.00090266   -0.01341936
     atom    8 type  2   force =    -0.01030936    0.00096024   -0.01782656
     atom    9 type  1   force =    -0.01507509   -0.01860681   -0.00159747
     atom   10 type  2   force =    -0.00195901   -0.01606355   -0.00067833
     atom   11 type  3   force =    -0.01687370    0.00012692    0.01832911
     atom   12 type  2   force =    -0.00229731    0.00075974    0.01214998
     atom   13 type  1   force =    -0.00009327   -0.00838573    0.01575369
     atom   14 type  2   force =    -0.01049946   -0.01759707    0.01796796
     atom   15 type  1   force =    -0.00017472   -0.00220108    0.00008190
     atom   16 type  2   force =    -0.01799842   -0.00036967    0.00366516
     atom   17 type  1   force =    -0.00753330    0.00178099   -0.01632358
     atom   18 type  2   force =     0.00108380   -0.00107669   -0.01650034
     atom   19 type  3   force =    -0.01466099    0.01620402   -0.00094169
     atom   20 type  2   force =    -0.00263416    0.01646234    0.00098768
     atom   21 type  1   force =     0.00038233    0.00027620   -0.00110260
     atom   22 type  2   force =    -0.01083778    0.00470736   -0.00008354
     atom   23 type  1   force =    -0.00243520    0.00697247   -0.01487678
     atom   24 type  2   force =    -0.01652429    0.01185547   -0.02004855
     atom   25 type  3   force =    -0.02030602    0.00499092   -0.00043635
     atom   26 type  2   force =    -0.00498560    0.00202144   -0.00166306
     atom   27 type  1   force =    -0.00797198    0.01374929    0.01650541
     atom   28 type  2   force =     0.00113742    0.01150279    0.01886119
     atom   29 type  1   force =    -0.00041817   -0.00013640    0.01534116
     atom   30 type  2   force =    -0.01011802    0.00158619    0.01917095
     atom   31 type  3   force =    -0.00165764    0.01194871    0.00113971
     atom   32 type  2   force =    -0.01596212    0.02410398    0.00250031
     atom   33 type  1   force =     0.00268522   -0.00714694   -0.01795560
     atom   34 type  2   force =     0.01131648   -0.01780700   -0.01903219
     atom   35 type  3   force =    -0.00036100   -0.00183839   -0.00054429
     atom   36 type  2   force =     0.02588322   -0.00238655    0.00084516
     atom   37 type  3   force =     0.01697031   -0.01166118   -0.00102722
     atom   38 type  2   force =     0.00357620   -0.01916084    0.00015107
     atom   39 type  1   force =     0.00712949   -0.00197713   -0.01763708
     atom   40 type  2   force =    -0.00081945    0.00057626   -0.02104206
     atom   41 type  3   force =     0.00367948   -0.01558833    0.00051774
     atom   42 type  2   force =     0.02106673   -0.01864775    0.00160305
     atom   43 type  1   force =     0.00253141   -0.00054980    0.01843527
     atom   44 type  2   force =     0.01726014    0.00104164    0.01998055
     atom   45 type  1   force =     0.00788901   -0.00787596    0.01761897
     atom   46 type  2   force =    -0.00205000   -0.01435030    0.02245173
     atom   47 type  3   force =     0.01615786   -0.00188942    0.00356902
     atom   48 type  2   force =     0.00331641   -0.00351947   -0.00206230
     atom   49 type  1   force =    -0.00080469   -0.00098436   -0.01572560
     atom   50 type  2   force =     0.01273791    0.00407482   -0.01487284
     atom   51 type  1   force =     0.00037043    0.01539637    0.00235924
     atom   52 type  2   force =     0.01578108    0.01385401   -0.00389227
     atom   53 type  1   force =     0.00889616   -0.00086209    0.00260021
     atom   54 type  2   force =    -0.00005197    0.00070213    0.00004235
     atom   55 type  3   force =     0.01746919    0.01681105   -0.01448312
     atom   56 type  2   force =     0.00283972    0.01354712   -0.01368856
     atom   57 type  3   force =     0.00112771   -0.00018543   -0.00169742
     atom   58 type  2   force =     0.02279246    0.00037836   -0.00095756
     atom   59 type  1   force =     0.00067632    0.01179887    0.01084063
     atom   60 type  2   force =     0.01125515    0.01325862    0.01206412
     atom   61 type  1   force =     0.00756668   -0.00161366    0.01099983
     atom   62 type  2   force =    -0.00164970   -0.00008637    0.01761530
     atom   63 type  1   force =     0.01152684    0.01260293    0.00091803
     atom   64 type  2   force =     0.00011991    0.01920734   -0.00120354

     Total force =     0.155893     Total SCF correction =     0.000264


     Computing stress (Cartesian axis) and pressure

          total   stress  (Ry/bohr**3)                   (kbar)     P=      -26.78
  -0.00023411  -0.00004649  -0.00007871          -34.44       -6.84      -11.58
  -0.00004649  -0.00021926   0.00000598           -6.84      -32.25        0.88
  -0.00007871   0.00000598  -0.00009268          -11.58        0.88      -13.63

 
     init_run     :      2.77s CPU      5.30s WALL (       1 calls)
     electrons    :    128.34s CPU    131.08s WALL (       1 calls)
     forces       :      1.60s CPU      1.65s WALL (       1 calls)
     stress       :     15.63s CPU     15.78s WALL (       1 calls)

     Called by init_run:
     wfcinit      :      2.32s CPU      2.42s WALL (       1 calls)
     potinit      :      0.21s CPU      2.44s WALL (       1 calls)
     hinit0       :      0.12s CPU      0.29s WALL (       1 calls)

     Called by electrons:
     c_bands      :    108.40s CPU    110.24s WALL (      21 calls)
     sum_band     :     13.65s CPU     14.10s WALL (      21 calls)
     v_of_rho     :      0.78s CPU      0.80s WALL (      22 calls)
     newd         :      1.32s CPU      1.56s WALL (      22 calls)
     PAW_pot      :      3.40s CPU      3.48s WALL (      22 calls)
     mix_rho      :      0.98s CPU      1.07s WALL (      21 calls)

     Called by c_bands:
     init_us_2    :      1.74s CPU      1.77s WALL (      90 calls)
     init_us_2:cp :      1.74s CPU      1.77s WALL (      90 calls)
     cegterg      :     93.33s CPU     95.08s WALL (      42 calls)

     Called by *egterg:
     cdiaghg      :      8.18s CPU      8.29s WALL (     212 calls)
     h_psi        :     48.96s CPU     49.70s WALL (     214 calls)
     s_psi        :     12.42s CPU     12.53s WALL (     214 calls)
     g_psi        :      0.21s CPU      0.21s WALL (     170 calls)

     Called by h_psi:
     h_psi:calbec :     12.32s CPU     12.42s WALL (     214 calls)
     vloc_psi     :     23.76s CPU     24.14s WALL (     214 calls)
     add_vuspsi   :     12.44s CPU     12.55s WALL (     214 calls)

     General routines
     calbec       :     18.93s CPU     19.09s WALL (     266 calls)
     fft          :      0.38s CPU      0.56s WALL (     267 calls)
     ffts         :      0.48s CPU      0.49s WALL (     439 calls)
     fftw         :     24.63s CPU     25.02s WALL (   52238 calls)
 
     Parallel routines
 
     PWSCF        :   2m28.58s CPU   2m34.79s WALL

 
   This run was terminated on:  16: 4:18  11May2026            

=------------------------------------------------------------------------------=
   JOB DONE.
=------------------------------------------------------------------------------=
