
     Program PWSCF v.7.1 starts on 11May2026 at 15:59: 8 

     This program is part of the open-source Quantum ESPRESSO suite
     for quantum simulation of materials; please cite
         "P. Giannozzi et al., J. Phys.:Condens. Matter 21 395502 (2009);
         "P. Giannozzi et al., J. Phys.:Condens. Matter 29 465901 (2017);
         "P. Giannozzi et al., J. Chem. Phys. 152 154105 (2020);
          URL http://www.quantum-espresso.org", 
     in publications or presentations arising from this work. More details at
     http://www.quantum-espresso.org/quote

     Parallel version (MPI & OpenMP), running on      32 processor cores
     Number of MPI processes:                32
     Threads/MPI process:                     1

     MPI processes distributed on     1 nodes
     91108 MiB available memory on the printing compute node when the environment starts
 
     Reading input from TiAlN_x0625finalrelaxedresult83915125.in

     Current dimensions of program PWSCF are:
     Max number of different atomic species (ntypx) = 10
     Max number of k-points (npk) = 150000
     Max angular momentum in pseudopotentials (lmaxx) =  4
     file Al.pbe-n-kjpaw_psl.1.0.0.UPF: wavefunction(s)  3S 3P renormalized
     file N.pbe-n-kjpaw_psl.1.0.0.UPF: wavefunction(s)  2S renormalized
     file Ti.pbe-spn-kjpaw_psl.1.0.0.UPF: wavefunction(s)  3S 3P 3D renormalized
 
     K-points division:     npool     =       4
     R & G space division:  proc/nbgrp/npool/nimage =       8
     Subspace diagonalization in iterative solution of the eigenvalue problem:
     one sub-group per band group will be used
     scalapack distributed-memory algorithm (size of sub-group:  2*  2 procs)

 
     Parallelization info
     --------------------
     sticks:   dense  smooth     PW     G-vecs:    dense   smooth      PW
     Min         601     601    164                31263    31263    4447
     Max         602     602    165                31266    31266    4450
     Sum        4809    4809   1313               250119   250119   35585
 
     Using Slab Decomposition
 


     bravais-lattice index     =            0
     lattice parameter (alat)  =      15.8577  a.u.
     unit-cell volume          =    3987.6528 (a.u.)^3
     number of atoms/cell      =           64
     number of atomic types    =            3
     number of electrons       =       364.00
     number of Kohn-Sham states=          218
     kinetic-energy cutoff     =      60.0000  Ry
     charge density cutoff     =     240.0000  Ry
     scf convergence threshold =      1.0E-08
     mixing beta               =       0.2000
     number of iterations used =            8  local-TF  mixing
     Exchange-correlation= SLA  PW   PBX  PBC
                           (   1   4   3   4   0   0   0)

     celldm(1)=  15.857660  celldm(2)=   0.000000  celldm(3)=   0.000000
     celldm(4)=   0.000000  celldm(5)=   0.000000  celldm(6)=   0.000000

     crystal axes: (cart. coord. in units of alat)
               a(1) = (   1.000000   0.000000   0.000000 )  
               a(2) = (   0.000000   1.000000   0.000000 )  
               a(3) = (   0.000000   0.000000   1.000000 )  

     reciprocal axes: (cart. coord. in units 2 pi/alat)
               b(1) = (  1.000000  0.000000  0.000000 )  
               b(2) = (  0.000000  1.000000  0.000000 )  
               b(3) = (  0.000000  0.000000  1.000000 )  


     PseudoPot. # 1 for Al read from file:
     ../../../pseudo/Al.pbe-n-kjpaw_psl.1.0.0.UPF
     MD5 check sum: 502b6b27b9c6270cab5dd1084b96fa6d
     Pseudo is Projector augmented-wave + core cor, Zval =  3.0
     Generated using &quot;atomic&quot; code by A. Dal Corso  v.6.3
     Shape of augmentation charge: PSQ
     Using radial grid of 1135 points,  6 beta functions with: 
                l(1) =   0
                l(2) =   0
                l(3) =   1
                l(4) =   1
                l(5) =   2
                l(6) =   2
     Q(r) pseudized with 0 coefficients 


     PseudoPot. # 2 for N  read from file:
     ../../../pseudo/N.pbe-n-kjpaw_psl.1.0.0.UPF
     MD5 check sum: 14c48229446f9f2d411169a3abcbc3fa
     Pseudo is Projector augmented-wave + core cor, Zval =  5.0
     Generated using &quot;atomic&quot; code by A. Dal Corso  v.6.3
     Shape of augmentation charge: PSQ
     Using radial grid of 1085 points,  4 beta functions with: 
                l(1) =   0
                l(2) =   0
                l(3) =   1
                l(4) =   1
     Q(r) pseudized with 0 coefficients 


     PseudoPot. # 3 for Ti read from file:
     ../../../pseudo/Ti.pbe-spn-kjpaw_psl.1.0.0.UPF
     MD5 check sum: 01f69b0d8ba4438b2e03ac6ea4af1c0b
     Pseudo is Projector augmented-wave + core cor, Zval = 12.0
     Generated using &quot;atomic&quot; code by A. Dal Corso  v.6.2.2
     Shape of augmentation charge: PSQ
     Using radial grid of 1177 points,  6 beta functions with: 
                l(1) =   0
                l(2) =   0
                l(3) =   1
                l(4) =   1
                l(5) =   2
                l(6) =   2
     Q(r) pseudized with 0 coefficients 


     atomic species   valence    mass     pseudopotential
        Al             3.00    26.98200     Al( 1.00)
        N              5.00    14.00700     N ( 1.00)
        Ti            12.00    47.86700     Ti( 1.00)

     No symmetry found



   Cartesian axes

     site n.     atom                  positions (alat units)
         1           Al  tau(   1) = (   0.0035411   0.0045671  -0.0054509  )
         2           N   tau(   2) = (   0.2454629   0.0009485  -0.0067026  )
         3           Ti  tau(   3) = (  -0.0052011   0.2449403   0.2543826  )
         4           N   tau(   4) = (   0.2480976   0.2543364   0.2451313  )
         5           Ti  tau(   5) = (   0.2439882  -0.0004124   0.2504110  )
         6           N   tau(   6) = (   0.0003036  -0.0005329   0.2427873  )
         7           Al  tau(   7) = (   0.2462309   0.2465364  -0.0013400  )
         8           N   tau(   8) = (   0.0021809   0.2446360  -0.0032171  )
         9           Al  tau(   9) = (  -0.0005024  -0.0030100   0.5010671  )
        10           N   tau(  10) = (   0.2389793   0.0046689   0.5017463  )
        11           Ti  tau(  11) = (  -0.0066422   0.2540173   0.7284997  )
        12           N   tau(  12) = (   0.2497446   0.2487236   0.7406233  )
        13           Al  tau(  13) = (   0.2473580  -0.0003265   0.7403142  )
        14           N   tau(  14) = (  -0.0002824  -0.0038925   0.7417681  )
        15           Al  tau(  15) = (   0.2466133   0.2463099   0.4959076  )
        16           N   tau(  16) = (   0.0079120   0.2341224   0.4936163  )
        17           Al  tau(  17) = (   0.0018454   0.4894292  -0.0007466  )
        18           N   tau(  18) = (   0.2459681   0.4913521  -0.0019818  )
        19           Ti  tau(  19) = (   0.0027955   0.7410381   0.2522538  )
        20           N   tau(  20) = (   0.2561627   0.7286421   0.2377522  )
        21           Al  tau(  21) = (   0.2478671   0.4897041   0.2393458  )
        22           N   tau(  22) = (   0.0001371   0.4944975   0.2345934  )
        23           Al  tau(  23) = (   0.2476629   0.7384270  -0.0024588  )
        24           N   tau(  24) = (   0.0055230   0.7424567  -0.0064633  )
        25           Ti  tau(  25) = (  -0.0021703   0.4890885   0.4884171  )
        26           N   tau(  26) = (   0.2449352   0.4851875   0.4929064  )
        27           Al  tau(  27) = (   0.0007211   0.7395351   0.7398705  )
        28           N   tau(  28) = (   0.2485299   0.7369946   0.7436162  )
        29           Al  tau(  29) = (   0.2490676   0.4936671   0.7426272  )
        30           N   tau(  30) = (  -0.0003639   0.5000436   0.7467031  )
        31           Ti  tau(  31) = (   0.2454419   0.7354730   0.4864750  )
        32           N   tau(  32) = (  -0.0060886   0.7466927   0.5030376  )
        33           Al  tau(  33) = (   0.4896857   0.0007698  -0.0031095  )
        34           N   tau(  34) = (   0.7407323   0.0056930  -0.0073234  )
        35           Ti  tau(  35) = (   0.4986924   0.2379896   0.2551442  )
        36           N   tau(  36) = (   0.7376323   0.2586817   0.2344447  )
        37           Ti  tau(  37) = (   0.7403699   0.0052304   0.2509207  )
        38           N   tau(  38) = (   0.4922028  -0.0119751   0.2337473  )
        39           Al  tau(  39) = (   0.7380900   0.2475452  -0.0030936  )
        40           N   tau(  40) = (   0.4903430   0.2456745  -0.0054677  )
        41           Ti  tau(  41) = (   0.4942360   0.0044226   0.4841932  )
        42           N   tau(  42) = (   0.7466269  -0.0067704   0.5033177  )
        43           Al  tau(  43) = (   0.4911604   0.2450977   0.7436163  )
        44           N   tau(  44) = (   0.7320343   0.2500902   0.7449958  )
        45           Al  tau(  45) = (   0.7369196  -0.0023884   0.7395580  )
        46           N   tau(  46) = (   0.4927181  -0.0017748   0.7455019  )
        47           Ti  tau(  47) = (   0.7357402   0.2471472   0.4867672  )
        48           N   tau(  48) = (   0.4827781   0.2450211   0.5052568  )
        49           Al  tau(  49) = (   0.4918586   0.4909317  -0.0004944  )
        50           N   tau(  50) = (   0.7399292   0.4904895  -0.0014288  )
        51           Al  tau(  51) = (   0.4928370   0.7361913   0.2430255  )
        52           N   tau(  52) = (   0.7311714   0.7304956   0.2538542  )
        53           Al  tau(  53) = (   0.7378805   0.4942246   0.2413528  )
        54           N   tau(  54) = (   0.4931826   0.4976106   0.2379979  )
        55           Ti  tau(  55) = (   0.7456176   0.7452643   0.0088154  )
        56           N   tau(  56) = (   0.4905338   0.7385338  -0.0025297  )
        57           Ti  tau(  57) = (   0.4946687   0.4868263   0.4886405  )
        58           N   tau(  58) = (   0.7391232   0.4994000   0.4941267  )
        59           Al  tau(  59) = (   0.4925229   0.7398688   0.7405580  )
        60           N   tau(  60) = (   0.7370613   0.7374515   0.7375456  )
        61           Al  tau(  61) = (   0.7351203   0.4972729   0.7430500  )
        62           N   tau(  62) = (   0.4925699   0.4945043   0.7456048  )
        63           Al  tau(  63) = (   0.7375678   0.7389564   0.4961262  )
        64           N   tau(  64) = (   0.4978943   0.7389828   0.4951139  )

     number of k points=     8  Gaussian smearing, width (Ry)=  0.0050
                       cart. coord. in units 2pi/alat
        k(    1) = (   0.0000000   0.0000000   0.0000000), wk =   0.2500000
        k(    2) = (   0.0000000   0.0000000  -0.5000000), wk =   0.2500000
        k(    3) = (   0.0000000  -0.5000000  -0.5000000), wk =   0.2500000
        k(    4) = (  -0.5000000  -0.5000000  -0.5000000), wk =   0.2500000
        k(    5) = (  -0.5000000   0.0000000   0.0000000), wk =   0.2500000
        k(    6) = (   0.0000000  -0.5000000   0.0000000), wk =   0.2500000
        k(    7) = (  -0.5000000   0.0000000   0.5000000), wk =   0.2500000
        k(    8) = (  -0.5000000   0.5000000   0.0000000), wk =   0.2500000

     Dense  grid:   250119 G-vectors     FFT dimensions: (  80,  80,  80)

     Estimated max dynamical RAM per process >     194.76 MB

     Estimated total dynamical RAM >       5.91 GB

     Check: negative core charge=   -0.000017

     Initial potential from superposition of free atoms

     starting charge     363.9362, renormalised to     364.0000
     Starting wfcs are  328 randomized atomic wfcs
     Checking if some PAW data can be deallocated... 

     total cpu time spent up to now is        4.0 secs

     Self-consistent Calculation

     iteration #  1     ecut=    60.00 Ry     beta= 0.20
     Davidson diagonalization with overlap
     ethr =  1.00E-02,  avg # of iterations =  2.0

     total cpu time spent up to now is        9.9 secs

     total energy              =   -3905.39673698 Ry
     estimated scf accuracy    <      17.85875480 Ry

     iteration #  2     ecut=    60.00 Ry     beta= 0.20
     Davidson diagonalization with overlap
     ethr =  4.91E-03,  avg # of iterations =  1.0

     total cpu time spent up to now is       14.8 secs

     total energy              =   -3901.24404063 Ry
     estimated scf accuracy    <      10.04779472 Ry

     iteration #  3     ecut=    60.00 Ry     beta= 0.20
     Davidson diagonalization with overlap
     ethr =  2.76E-03,  avg # of iterations =  2.2

     total cpu time spent up to now is       21.3 secs

     total energy              =   -3903.46042050 Ry
     estimated scf accuracy    <       0.72179975 Ry

     iteration #  4     ecut=    60.00 Ry     beta= 0.20
     Davidson diagonalization with overlap
     ethr =  1.98E-04,  avg # of iterations = 10.2

     total cpu time spent up to now is       28.7 secs

     total energy              =   -3903.51712652 Ry
     estimated scf accuracy    <       0.49563512 Ry

     iteration #  5     ecut=    60.00 Ry     beta= 0.20
     Davidson diagonalization with overlap
     ethr =  1.36E-04,  avg # of iterations =  1.1

     total cpu time spent up to now is       33.8 secs

     total energy              =   -3903.46908334 Ry
     estimated scf accuracy    <       0.30009288 Ry

     iteration #  6     ecut=    60.00 Ry     beta= 0.20
     Davidson diagonalization with overlap
     ethr =  8.24E-05,  avg # of iterations =  1.0

     total cpu time spent up to now is       38.6 secs

     total energy              =   -3903.46160642 Ry
     estimated scf accuracy    <       0.07654980 Ry

     iteration #  7     ecut=    60.00 Ry     beta= 0.20
     Davidson diagonalization with overlap
     ethr =  2.10E-05,  avg # of iterations =  6.5

     total cpu time spent up to now is       46.1 secs

     total energy              =   -3903.46639505 Ry
     estimated scf accuracy    <       0.01563412 Ry

     iteration #  8     ecut=    60.00 Ry     beta= 0.20
     Davidson diagonalization with overlap
     ethr =  4.30E-06,  avg # of iterations = 11.9

     total cpu time spent up to now is       54.8 secs

     total energy              =   -3903.46746987 Ry
     estimated scf accuracy    <       0.00673660 Ry

     iteration #  9     ecut=    60.00 Ry     beta= 0.20
     Davidson diagonalization with overlap
     ethr =  1.85E-06,  avg # of iterations =  2.0

     total cpu time spent up to now is       60.6 secs

     total energy              =   -3903.46788951 Ry
     estimated scf accuracy    <       0.00209600 Ry

     iteration # 10     ecut=    60.00 Ry     beta= 0.20
     Davidson diagonalization with overlap
     ethr =  5.76E-07,  avg # of iterations =  2.4

     total cpu time spent up to now is       66.2 secs

     total energy              =   -3903.46776059 Ry
     estimated scf accuracy    <       0.00109327 Ry

     iteration # 11     ecut=    60.00 Ry     beta= 0.20
     Davidson diagonalization with overlap
     ethr =  3.00E-07,  avg # of iterations =  2.4

     total cpu time spent up to now is       72.1 secs

     total energy              =   -3903.46779984 Ry
     estimated scf accuracy    <       0.00026200 Ry

     iteration # 12     ecut=    60.00 Ry     beta= 0.20
     Davidson diagonalization with overlap
     ethr =  7.20E-08,  avg # of iterations =  6.5

     total cpu time spent up to now is       80.0 secs

     total energy              =   -3903.46782077 Ry
     estimated scf accuracy    <       0.00009484 Ry

     iteration # 13     ecut=    60.00 Ry     beta= 0.20
     Davidson diagonalization with overlap
     ethr =  2.61E-08,  avg # of iterations =  3.4

     total cpu time spent up to now is       86.5 secs

     total energy              =   -3903.46783215 Ry
     estimated scf accuracy    <       0.00001147 Ry

     iteration # 14     ecut=    60.00 Ry     beta= 0.20
     Davidson diagonalization with overlap
     ethr =  3.15E-09,  avg # of iterations =  6.1

     total cpu time spent up to now is       95.4 secs

     total energy              =   -3903.46783336 Ry
     estimated scf accuracy    <       0.00000571 Ry

     iteration # 15     ecut=    60.00 Ry     beta= 0.20
     Davidson diagonalization with overlap
     ethr =  1.57E-09,  avg # of iterations =  2.0

     total cpu time spent up to now is      100.8 secs

     total energy              =   -3903.46783291 Ry
     estimated scf accuracy    <       0.00000270 Ry

     iteration # 16     ecut=    60.00 Ry     beta= 0.20
     Davidson diagonalization with overlap
     ethr =  7.41E-10,  avg # of iterations =  2.5

     total cpu time spent up to now is      106.8 secs

     total energy              =   -3903.46783310 Ry
     estimated scf accuracy    <       0.00000062 Ry

     iteration # 17     ecut=    60.00 Ry     beta= 0.20
     Davidson diagonalization with overlap
     ethr =  1.72E-10,  avg # of iterations =  3.2

     total cpu time spent up to now is      113.3 secs

     total energy              =   -3903.46783314 Ry
     estimated scf accuracy    <       0.00000020 Ry

     iteration # 18     ecut=    60.00 Ry     beta= 0.20
     Davidson diagonalization with overlap
     ethr =  5.60E-11,  avg # of iterations =  2.4

     total cpu time spent up to now is      119.1 secs

     total energy              =   -3903.46783314 Ry
     estimated scf accuracy    <       0.00000009 Ry

     iteration # 19     ecut=    60.00 Ry     beta= 0.20
     Davidson diagonalization with overlap
     ethr =  2.36E-11,  avg # of iterations =  3.0

     total cpu time spent up to now is      125.2 secs

     total energy              =   -3903.46783316 Ry
     estimated scf accuracy    <       0.00000003 Ry

     iteration # 20     ecut=    60.00 Ry     beta= 0.20
     Davidson diagonalization with overlap
     ethr =  7.43E-12,  avg # of iterations =  5.1

     total cpu time spent up to now is      132.2 secs

     total energy              =   -3903.46783316 Ry
     estimated scf accuracy    <       0.00000001 Ry

     iteration # 21     ecut=    60.00 Ry     beta= 0.20
     Davidson diagonalization with overlap
     ethr =  3.98E-12,  avg # of iterations =  2.5

     total cpu time spent up to now is      138.0 secs

     End of self-consistent calculation

          k = 0.0000 0.0000 0.0000 ( 31439 PWs)   bands (ev):

   -44.5970 -44.1992 -44.0119 -43.9835 -43.9581 -43.7841 -43.7628 -43.6910
   -43.6873 -43.6576 -43.5586 -43.5172 -20.9462 -20.8631 -20.8207 -20.6077
   -20.5376 -20.4969 -20.4538 -20.4179 -20.4091 -20.3973 -20.3693 -20.3247
   -20.3088 -20.2843 -20.2737 -20.2402 -20.2050 -20.1772 -20.1706 -20.1519
   -20.1183 -20.0955 -20.0570 -20.0300 -20.0069 -19.9956 -19.9901 -19.9485
   -19.9337 -19.8857 -19.8660 -19.8328 -19.8058 -19.7944 -19.7421 -19.7027
    -4.3597  -3.2760  -3.0805  -2.9858  -2.9100  -2.8788  -2.7950  -2.1846
    -2.0983  -2.0329  -1.9845  -1.9472  -1.9119  -1.7867  -1.7512  -1.7286
    -1.7080  -1.6493  -1.5692  -1.5487  -1.5023  -1.4518  -1.4060  -1.3457
    -1.2916  -1.2619  -1.0563  -0.9887  -0.9364  -0.9228  -0.7927  -0.7778
     4.3751   4.6351   4.7328   4.9610   5.9221   5.9329   5.9340   5.9963
     6.0283   6.1296   6.2136   6.2918   6.4109   6.4771   6.5534   6.6573
     6.7432   6.7807   6.9061   6.9341   7.0156   7.0813   7.1226   7.1574
     7.1993   7.3293   7.3733   7.4580   7.4764   7.5043   7.5967   7.6724
     7.7510   7.8978   7.9168   8.0262   8.0825   8.1342   8.1816   8.3055
     8.4056   8.4468   8.5045   8.5161   8.5569   8.5993   8.6345   8.6619
     8.7232   8.7900   8.8251   8.8942   8.9930   9.0765   9.2043   9.2892
     9.4273   9.5280   9.5893   9.6206   9.7227   9.7541   9.7734   9.8316
     9.8696   9.8777   9.8967   9.9356   9.9623  10.0068  10.0661  10.1318
    10.3388  10.3589  10.4170  10.4783  10.5100  10.5504  10.5746  10.6094
    10.6210  10.6554  10.6720  10.7106  10.7311  10.7684  10.7977  10.9340
    10.9491  10.9726  11.0264  11.0426  11.0767  11.9296  11.9414  12.0149
    12.0473  12.4608  12.5119  13.1656  13.2382  13.2911  13.6013  13.6797
    14.2128  14.3081  14.5091  14.5986  14.8127  14.8486  14.9803  15.0970
    15.2247  15.2326  15.2797  15.3782  15.3807  15.4491  15.4824  15.5399
    15.5847  15.6175  15.6386  15.7206  15.7744  15.8590  15.8940  15.9156
    15.9579  15.9703  15.9923  16.0559  16.0969  16.1319  16.1864  16.2320
    16.2587  16.3118

          k = 0.0000 0.0000-0.5000 ( 31256 PWs)   bands (ev):

   -44.5970 -44.1992 -44.0118 -43.9835 -43.9581 -43.7840 -43.7627 -43.6910
   -43.6873 -43.6576 -43.5586 -43.5172 -20.9462 -20.8631 -20.8207 -20.6077
   -20.5375 -20.4969 -20.4532 -20.4178 -20.4093 -20.3973 -20.3693 -20.3247
   -20.3088 -20.2842 -20.2737 -20.2402 -20.2051 -20.1771 -20.1706 -20.1518
   -20.1192 -20.0955 -20.0569 -20.0299 -20.0071 -19.9957 -19.9901 -19.9485
   -19.9338 -19.8856 -19.8660 -19.8328 -19.8055 -19.7944 -19.7421 -19.7026
    -4.0550  -3.8973  -2.9345  -2.8603  -2.7523  -2.7223  -2.6283  -2.5474
    -2.3404  -2.2899  -2.0990  -1.9261  -1.8547  -1.8034  -1.7201  -1.6710
    -1.6163  -1.6062  -1.5762  -1.5440  -1.5098  -1.4064  -1.3655  -1.2460
    -1.2305  -1.1396  -1.0356  -1.0228  -0.9635  -0.9555  -0.8170  -0.7812
     4.8945   5.0965   5.1112   5.1964   5.3629   5.4537   5.6472   5.6707
     5.9621   5.9686   6.1429   6.1937   6.2873   6.4673   6.5651   6.5971
     6.6634   6.7434   6.8118   6.8355   6.9641   7.0981   7.1317   7.1984
     7.2315   7.2637   7.3192   7.3413   7.4076   7.4672   7.6053   7.6591
     7.7182   7.7324   7.8760   7.9032   8.0174   8.1027   8.4704   8.5197
     8.5738   8.5865   8.6088   8.6283   8.6537   8.7767   8.8924   8.9159
     9.0101   9.0921   9.1244   9.1743   9.3015   9.3339   9.4216   9.4524
     9.4709   9.4838   9.5676   9.5889   9.6039   9.6142   9.6719   9.7006
     9.7366   9.8000   9.8338   9.8760   9.9451   9.9837  10.0353  10.0677
    10.1274  10.1420  10.1714  10.2173  10.2849  10.3280  10.4577  10.4830
    10.4912  10.5120  10.6593  10.6760  10.7461  10.8267  10.9034  10.9272
    10.9681  11.0087  11.0474  11.0865  11.4071  11.4184  11.4394  11.4537
    12.0609  13.0519  13.1023  13.1958  13.5825  13.7647  13.9198  13.9390
    14.2724  14.3137  14.4411  14.5619  14.6985  14.7780  14.8526  14.8839
    14.9355  15.1284  15.1498  15.2431  15.3217  15.3318  15.4311  15.5219
    15.5521  15.5674  15.5923  15.6422  15.7516  15.7987  15.8850  15.9478
    15.9751  16.0214  16.0890  16.1340  16.1683  16.1826  16.2793  16.3121
    16.3516  16.3777

          k = 0.0000-0.5000-0.5000 ( 31256 PWs)   bands (ev):

   -44.5970 -44.1992 -44.0117 -43.9837 -43.9580 -43.7839 -43.7631 -43.6907
   -43.6873 -43.6578 -43.5586 -43.5172 -20.9462 -20.8631 -20.8207 -20.6076
   -20.5370 -20.4930 -20.4504 -20.4172 -20.4093 -20.3990 -20.3722 -20.3183
   -20.3139 -20.2845 -20.2824 -20.2434 -20.2084 -20.1723 -20.1683 -20.1561
   -20.1246 -20.0777 -20.0556 -20.0377 -20.0036 -19.9995 -19.9919 -19.9458
   -19.9272 -19.8835 -19.8681 -19.8343 -19.8060 -19.7949 -19.7447 -19.7024
    -3.8340  -3.6592  -3.5275  -3.3487  -2.6544  -2.4531  -2.4412  -2.3740
    -2.2737  -2.2494  -2.2145  -2.1066  -1.8767  -1.8654  -1.8568  -1.7273
    -1.6031  -1.5172  -1.4915  -1.4772  -1.4100  -1.3808  -1.2455  -1.2262
    -1.1992  -1.1404  -1.0967  -1.0849  -1.0024  -0.9427  -0.8680  -0.7803
     4.9515   5.1627   5.1997   5.3685   5.5572   5.7284   5.8075   6.0154
     6.0355   6.0669   6.1267   6.1897   6.2622   6.2974   6.3596   6.4179
     6.4609   6.4891   6.5760   6.6175   6.6811   6.7389   6.7978   6.8732
     6.9374   7.1174   7.1484   7.3648   7.4107   7.5445   7.6212   7.7975
     7.8403   8.0278   8.1785   8.3079   8.3276   8.4641   8.5237   8.5418
     8.5910   8.6193   8.6565   8.7429   8.7519   8.8458   8.8595   8.9097
     8.9290   8.9889   9.0818   9.0888   9.1482   9.1596   9.2410   9.3161
     9.4475   9.4985   9.5087   9.5539   9.6170   9.7014   9.7371   9.7793
     9.8463   9.8474   9.9116   9.9800  10.0440  10.0667  10.0779  10.1331
    10.1744  10.1914  10.2555  10.3444  10.4073  10.4145  10.4364  10.4905
    10.5343  10.5817  10.6016  10.6347  10.6736  10.6991  10.7119  10.7673
    10.8197  10.8617  10.8792  10.9359  11.1245  11.2080  11.4096  11.4802
    12.9780  13.1757  13.3114  13.4892  13.5470  13.6181  13.9760  14.0234
    14.1562  14.2640  14.3418  14.4581  14.5617  14.6561  14.7410  14.7904
    14.7970  14.8817  14.9757  15.1259  15.1795  15.2892  15.3358  15.3794
    15.4466  15.4546  15.6588  15.7252  15.7663  15.8372  15.8732  15.9511
    15.9922  16.0532  16.1010  16.1418  16.2107  16.3406  16.3767  16.4796
    16.5904  16.6960

          k =-0.5000-0.5000-0.5000 ( 31144 PWs)   bands (ev):

   -44.5970 -44.1992 -44.0117 -43.9837 -43.9580 -43.7841 -43.7628 -43.6906
   -43.6872 -43.6578 -43.5586 -43.5172 -20.9462 -20.8631 -20.8207 -20.6077
   -20.5375 -20.4928 -20.4477 -20.4179 -20.4119 -20.3985 -20.3714 -20.3149
   -20.3060 -20.2963 -20.2756 -20.2414 -20.2093 -20.1828 -20.1715 -20.1438
   -20.1216 -20.1033 -20.0550 -20.0303 -20.0028 -19.9909 -19.9834 -19.9542
   -19.9281 -19.8835 -19.8698 -19.8351 -19.8061 -19.7948 -19.7419 -19.7029
    -3.6392  -3.4899  -3.2932  -3.2196  -3.1761  -3.1222  -2.8809  -2.7896
    -2.0323  -1.9263  -1.9034  -1.8574  -1.7155  -1.6855  -1.6148  -1.5961
    -1.5401  -1.4892  -1.4361  -1.4098  -1.3914  -1.3457  -1.3008  -1.2920
    -1.2658  -1.1818  -1.1525  -1.1415  -1.1102  -1.0524  -1.0059  -0.9131
     5.3143   5.4108   5.4448   5.5388   5.5415   5.6178   5.6484   5.7459
     5.8086   5.8407   5.8753   6.0257   6.1380   6.1534   6.2247   6.3567
     6.3830   6.4799   6.5059   6.6782   6.7054   6.7448   6.8370   7.0923
     7.4984   7.5895   7.6341   7.7614   7.7735   7.8305   7.9262   7.9699
     7.9978   8.0522   8.1232   8.1713   8.2304   8.2662   8.3237   8.3917
     8.4252   8.4533   8.4759   8.5149   8.5371   8.5831   8.6380   8.6710
     8.7359   8.7487   8.8561   8.9117   8.9479   9.0291   9.1424   9.3146
     9.3465   9.3817   9.4336   9.4943   9.5606   9.5738   9.6870   9.7411
     9.8249   9.8568   9.8753   9.9043   9.9497   9.9760  10.0771  10.1255
    10.1550  10.1852  10.2805  10.3184  10.4922  10.5195  10.5862  10.6408
    10.6653  10.7002  10.7472  10.7878  10.8212  10.8995  10.9146  10.9957
    11.0335  11.0963  11.1232  11.1700  11.1971  11.3079  11.3258  11.3521
    13.2688  13.3943  13.4878  13.6311  13.7202  13.7461  13.8158  13.8724
    13.9809  14.0329  14.1054  14.2805  14.3068  14.4774  14.6088  14.6756
    14.7379  14.7631  14.8443  14.9260  15.0013  15.0801  15.1596  15.2233
    15.2973  15.3101  15.6972  15.7520  15.8489  15.9333  16.0245  16.0715
    16.1177  16.1528  16.1985  16.2811  16.4571  16.5384  16.6615  16.7289
    16.8403  16.9179

          k =-0.5000 0.0000 0.0000 ( 31256 PWs)   bands (ev):

   -44.5970 -44.1992 -44.0118 -43.9835 -43.9581 -43.7843 -43.7625 -43.6910
   -43.6872 -43.6577 -43.5586 -43.5172 -20.9462 -20.8631 -20.8207 -20.6077
   -20.5371 -20.4950 -20.4479 -20.4175 -20.4142 -20.3933 -20.3703 -20.3206
   -20.3051 -20.2929 -20.2765 -20.2429 -20.2117 -20.1892 -20.1748 -20.1336
   -20.1269 -20.0920 -20.0529 -20.0340 -20.0016 -19.9925 -19.9851 -19.9514
   -19.9299 -19.8820 -19.8682 -19.8334 -19.8071 -19.7964 -19.7440 -19.7029
    -4.1137  -3.8007  -3.0995  -2.8069  -2.7953  -2.7021  -2.5969  -2.4502
    -2.3764  -2.2049  -2.1357  -1.9519  -1.9375  -1.7575  -1.7201  -1.6680
    -1.6309  -1.5809  -1.5037  -1.4684  -1.3954  -1.3884  -1.2908  -1.2600
    -1.2021  -1.1696  -1.1138  -1.0961  -1.0240  -0.9643  -0.9132  -0.8480
     4.9563   5.0162   5.0618   5.2270   5.3595   5.4236   5.6422   5.9201
     5.9855   6.0632   6.1025   6.1837   6.2210   6.3988   6.4381   6.5252
     6.5536   6.5836   6.6899   6.7625   6.9090   6.9948   7.0780   7.1955
     7.2544   7.3054   7.3373   7.4539   7.5033   7.5853   7.6670   7.7109
     7.7204   7.7680   7.9043   7.9527   8.0560   8.1457   8.6089   8.6486
     8.7013   8.7222   8.7813   8.7966   8.8393   8.8713   9.0236   9.0658
     9.1135   9.1885   9.2625   9.2737   9.3074   9.3323   9.3545   9.3701
     9.4085   9.4556   9.5319   9.5492   9.5994   9.6502   9.6738   9.7099
     9.7444   9.7891   9.8454   9.8858   9.9156   9.9438  10.0014  10.0697
    10.0866  10.1227  10.1465  10.1750  10.2065  10.2552  10.2979  10.3445
    10.4072  10.4634  10.4908  10.5252  10.5836  10.6501  10.7116  10.7306
    10.7527  10.9333  10.9787  11.0515  11.3947  11.4637  11.4862  11.5909
    12.6484  12.8187  13.2483  13.3634  13.4517  13.6985  13.8930  13.9475
    14.1453  14.2194  14.2562  14.4186  14.4780  14.5929  14.7814  14.8144
    14.9566  15.0308  15.1635  15.2462  15.2951  15.3287  15.3701  15.4820
    15.5684  15.6027  15.7324  15.8125  15.8822  15.9089  15.9254  15.9664
    16.0008  16.0430  16.0790  16.1328  16.1715  16.2158  16.2429  16.2740
    16.4621  16.5341

          k = 0.0000-0.5000 0.0000 ( 31256 PWs)   bands (ev):

   -44.5970 -44.1992 -44.0117 -43.9837 -43.9580 -43.7839 -43.7631 -43.6907
   -43.6873 -43.6578 -43.5586 -43.5172 -20.9462 -20.8631 -20.8207 -20.6076
   -20.5371 -20.4930 -20.4511 -20.4172 -20.4093 -20.3990 -20.3720 -20.3183
   -20.3138 -20.2845 -20.2824 -20.2434 -20.2084 -20.1723 -20.1683 -20.1558
   -20.1244 -20.0775 -20.0556 -20.0376 -20.0036 -19.9992 -19.9919 -19.9459
   -19.9272 -19.8835 -19.8681 -19.8343 -19.8063 -19.7948 -19.7447 -19.7024
    -4.1027  -3.8360  -2.9305  -2.9253  -2.8176  -2.6983  -2.5748  -2.4708
    -2.3687  -2.2809  -2.0549  -1.9641  -1.8827  -1.7773  -1.7625  -1.7031
    -1.6808  -1.5939  -1.5392  -1.4896  -1.4014  -1.3686  -1.2569  -1.2461
    -1.1923  -1.1565  -1.1055  -1.0837  -1.0189  -0.9730  -0.8757  -0.8195
     4.7953   5.0368   5.2149   5.3043   5.4413   5.4672   5.7414   5.7664
     6.0163   6.0860   6.1285   6.2280   6.3167   6.3898   6.4171   6.4747
     6.5334   6.5892   6.7311   6.7905   6.8496   6.9848   7.0445   7.0657
     7.0924   7.1957   7.3314   7.3836   7.4109   7.5302   7.6219   7.6667
     7.7953   7.8563   7.9634   8.0114   8.0526   8.2670   8.4726   8.5859
     8.6064   8.6808   8.7505   8.7509   8.8024   8.8559   8.8843   8.9141
     8.9757   9.1154   9.2680   9.2942   9.3209   9.3609   9.4184   9.4375
     9.4597   9.4996   9.5561   9.5795   9.6232   9.6680   9.6916   9.7047
     9.7480   9.7839   9.8453   9.9024   9.9506  10.0179  10.0304  10.0596
    10.1054  10.1225  10.1897  10.2298  10.2710  10.3229  10.3348  10.4067
    10.4776  10.5286  10.5464  10.5823  10.6173  10.6589  10.7158  10.7428
    10.8784  10.9059  10.9654  11.0595  11.3785  11.4363  11.5087  11.5698
    12.5309  13.0027  13.0540  13.3261  13.5095  13.5655  13.9649  13.9968
    14.0091  14.2566  14.3499  14.4494  14.6193  14.6849  14.8757  14.9140
    14.9490  15.0528  15.1310  15.2058  15.3176  15.3668  15.4404  15.4776
    15.4964  15.5508  15.7002  15.7127  15.8210  15.8582  15.9150  15.9648
    16.0286  16.0602  16.0682  16.1005  16.1108  16.1541  16.2035  16.3173
    16.3668  16.4407

          k =-0.5000 0.0000 0.5000 ( 31256 PWs)   bands (ev):

   -44.5970 -44.1992 -44.0118 -43.9835 -43.9581 -43.7843 -43.7625 -43.6910
   -43.6872 -43.6576 -43.5586 -43.5172 -20.9462 -20.8631 -20.8207 -20.6077
   -20.5371 -20.4949 -20.4474 -20.4175 -20.4142 -20.3932 -20.3703 -20.3206
   -20.3051 -20.2928 -20.2766 -20.2430 -20.2117 -20.1892 -20.1749 -20.1339
   -20.1271 -20.0921 -20.0529 -20.0340 -20.0019 -19.9926 -19.9852 -19.9513
   -19.9299 -19.8819 -19.8682 -19.8334 -19.8068 -19.7964 -19.7440 -19.7029
    -3.8418  -3.6451  -3.4882  -3.3986  -2.5799  -2.5308  -2.4438  -2.4303
    -2.2908  -2.2473  -2.2045  -2.1421  -1.8923  -1.7548  -1.7406  -1.6475
    -1.6041  -1.5649  -1.4876  -1.4824  -1.4338  -1.3828  -1.3089  -1.2235
    -1.1624  -1.1287  -1.1229  -1.0743  -1.0151  -0.9619  -0.8729  -0.8401
     5.0213   5.1318   5.2096   5.4100   5.5216   5.6399   5.7851   5.8869
     5.9083   6.0071   6.0707   6.1167   6.1807   6.2185   6.3073   6.4095
     6.5561   6.5879   6.6570   6.6900   6.7446   6.7774   6.8848   6.9658
     6.9988   7.0940   7.1966   7.2620   7.4442   7.5572   7.7826   7.8289
     8.0499   8.1534   8.2201   8.2916   8.4035   8.4928   8.5403   8.5613
     8.5939   8.6228   8.6452   8.6691   8.8182   8.8719   8.8966   8.9458
     8.9948   9.0064   9.1145   9.1641   9.1783   9.2008   9.2734   9.3023
     9.4247   9.4392   9.5324   9.5665   9.5932   9.6206   9.6404   9.6786
     9.7586   9.7884   9.8116   9.8827   9.9168   9.9978  10.0383  10.0590
    10.1238  10.2011  10.2780  10.3022  10.3788  10.3964  10.4354  10.4548
    10.4912  10.5603  10.5820  10.6212  10.6511  10.7295  10.7346  10.8006
    10.8091  10.8418  10.8610  10.9210  11.1570  11.2179  11.3457  11.5583
    13.1740  13.2905  13.3142  13.4129  13.4614  13.6835  13.9479  14.0153
    14.1415  14.2554  14.3037  14.4200  14.4897  14.5323  14.6715  14.7407
    14.8056  14.8774  14.9572  14.9763  15.1511  15.2699  15.3590  15.4259
    15.4537  15.5806  15.6282  15.7201  15.8759  15.8864  15.9353  15.9605
    16.0301  16.0725  16.1284  16.1582  16.2148  16.2506  16.3250  16.5004
    16.6253  16.6503

          k =-0.5000 0.5000 0.0000 ( 31256 PWs)   bands (ev):

   -44.5970 -44.1992 -44.0117 -43.9837 -43.9580 -43.7841 -43.7629 -43.6906
   -43.6872 -43.6578 -43.5586 -43.5172 -20.9462 -20.8631 -20.8207 -20.6077
   -20.5375 -20.4928 -20.4484 -20.4180 -20.4119 -20.3985 -20.3713 -20.3149
   -20.3060 -20.2963 -20.2756 -20.2413 -20.2093 -20.1829 -20.1716 -20.1439
   -20.1210 -20.1031 -20.0550 -20.0301 -20.0028 -19.9909 -19.9832 -19.9543
   -19.9280 -19.8836 -19.8698 -19.8351 -19.8064 -19.7948 -19.7419 -19.7029
    -3.8852  -3.6020  -3.5159  -3.3440  -2.6970  -2.5583  -2.4177  -2.3856
    -2.3085  -2.2373  -2.1039  -2.0880  -1.8882  -1.8116  -1.7460  -1.6942
    -1.6242  -1.5848  -1.5102  -1.4028  -1.3834  -1.2866  -1.2380  -1.1872
    -1.1695  -1.1531  -1.1345  -1.1040  -1.0657  -0.9924  -0.9357  -0.9198
     4.9971   5.0859   5.2147   5.4509   5.5283   5.6046   5.6753   5.7771
     6.0889   6.1282   6.1762   6.2283   6.2979   6.3072   6.3562   6.4088
     6.4701   6.4826   6.5892   6.6547   6.6942   6.7936   6.8144   6.8810
     6.9979   7.0636   7.1227   7.2704   7.3593   7.5770   7.5871   7.7316
     8.1389   8.2086   8.3046   8.3293   8.4197   8.4555   8.5030   8.5942
     8.6508   8.7052   8.7934   8.9087   8.9292   8.9621   8.9862   9.0412
     9.0418   9.0878   9.1496   9.1845   9.2289   9.2825   9.3319   9.3521
     9.4094   9.4558   9.4707   9.5282   9.5455   9.5642   9.6241   9.6603
     9.7283   9.7717   9.8192   9.8240   9.9014   9.9314   9.9871  10.0051
    10.0575  10.0835  10.1230  10.1604  10.2656  10.2918  10.3653  10.3762
    10.4340  10.4913  10.5422  10.5669  10.5881  10.6573  10.6895  10.7905
    10.8210  10.9448  10.9601  11.0905  11.2536  11.2937  11.4516  11.4806
    13.2285  13.3838  13.4710  13.5945  13.7555  13.7950  13.8390  13.8868
    13.9654  14.0522  14.0673  14.3343  14.3416  14.5197  14.6800  14.7689
    14.7952  14.9110  14.9575  15.0424  15.1342  15.1445  15.2154  15.3192
    15.4457  15.5420  15.6858  15.8555  15.8935  15.9191  16.0010  16.0836
    16.1032  16.1260  16.1364  16.2311  16.2637  16.3412  16.4267  16.4544
    16.6099  16.7073

     the Fermi energy is    13.7672 ev

!    total energy              =   -3903.46783317 Ry
     total all-electron energy =    -33714.959899 Ry
     estimated scf accuracy    <          5.5E-09 Ry
     smearing contrib. (-TS)   =      -0.00220647 Ry
     internal energy E=F+TS    =   -3903.46562669 Ry

     The total energy is F=E-TS. E is the sum of the following terms:
     one-electron contribution =    -722.57791707 Ry
     hartree contribution      =     596.50976220 Ry
     xc contribution           =    -464.25148153 Ry
     ewald contribution        =   -1580.95395767 Ry
     one-center paw contrib.   =   -1732.19203261 Ry

     convergence has been achieved in  21 iterations

     Forces acting on atoms (cartesian axes, Ry/au):

     atom    1 type  1   force =    -0.01440262   -0.01323123   -0.01819033
     atom    2 type  2   force =     0.00074576   -0.01618772   -0.02563643
     atom    3 type  3   force =    -0.03066277    0.00493901   -0.00475373
     atom    4 type  2   force =    -0.00932832   -0.00656449    0.00297773
     atom    5 type  3   force =     0.00704384   -0.01729425    0.00035075
     atom    6 type  2   force =    -0.03104709   -0.03335719    0.00036487
     atom    7 type  1   force =     0.00044928    0.00121933   -0.01723251
     atom    8 type  2   force =    -0.01337381    0.00137799   -0.02431674
     atom    9 type  1   force =    -0.01936799   -0.02445920   -0.00222132
     atom   10 type  2   force =    -0.00252726   -0.02217959   -0.00044646
     atom   11 type  3   force =    -0.02157148    0.00037526    0.02460239
     atom   12 type  2   force =    -0.00334314    0.00123150    0.01668759
     atom   13 type  1   force =    -0.00004876   -0.01027421    0.02057513
     atom   14 type  2   force =    -0.01352572   -0.02354331    0.02342949
     atom   15 type  1   force =     0.00004981   -0.00277794    0.00032880
     atom   16 type  2   force =    -0.02519043   -0.00030914    0.00533712
     atom   17 type  1   force =    -0.00933789    0.00244878   -0.02159820
     atom   18 type  2   force =     0.00160957   -0.00148460   -0.02204332
     atom   19 type  3   force =    -0.01949314    0.02059317   -0.00137105
     atom   20 type  2   force =    -0.00417791    0.02296718    0.00109318
     atom   21 type  1   force =     0.00064759    0.00055164   -0.00152560
     atom   22 type  2   force =    -0.01451809    0.00680422   -0.00022796
     atom   23 type  1   force =    -0.00366629    0.00851408   -0.01961852
     atom   24 type  2   force =    -0.02165959    0.01530795   -0.02702243
     atom   25 type  3   force =    -0.02674685    0.00711830   -0.00041453
     atom   26 type  2   force =    -0.00689762    0.00343339   -0.00235861
     atom   27 type  1   force =    -0.00973922    0.01738389    0.02165554
     atom   28 type  2   force =     0.00157572    0.01521672    0.02532499
     atom   29 type  1   force =    -0.00052830   -0.00004639    0.02016481
     atom   30 type  2   force =    -0.01318803    0.00221502    0.02562916
     atom   31 type  3   force =    -0.00224747    0.01549083    0.00191277
     atom   32 type  2   force =    -0.02122449    0.03220533    0.00394892
     atom   33 type  1   force =     0.00390992   -0.00865155   -0.02373821
     atom   34 type  2   force =     0.01466922   -0.02362594   -0.02571574
     atom   35 type  3   force =    -0.00076145   -0.00288904   -0.00043556
     atom   36 type  2   force =     0.03600122   -0.00344342    0.00062305
     atom   37 type  3   force =     0.02107700   -0.01516608   -0.00177016
     atom   38 type  2   force =     0.00513019   -0.02583092   -0.00057273
     atom   39 type  1   force =     0.00872895   -0.00310113   -0.02352348
     atom   40 type  2   force =    -0.00124021    0.00096263   -0.02832171
     atom   41 type  3   force =     0.00510726   -0.02049964    0.00004414
     atom   42 type  2   force =     0.02823433   -0.02484927    0.00279168
     atom   43 type  1   force =     0.00353694   -0.00075357    0.02460125
     atom   44 type  2   force =     0.02317595    0.00144383    0.02695637
     atom   45 type  1   force =     0.00949098   -0.00964325    0.02331491
     atom   46 type  2   force =    -0.00288403   -0.01888789    0.03010867
     atom   47 type  3   force =     0.02151743   -0.00266459    0.00488634
     atom   48 type  2   force =     0.00518574   -0.00494753   -0.00229996
     atom   49 type  1   force =    -0.00117550   -0.00155715   -0.02064856
     atom   50 type  2   force =     0.01680061    0.00574156   -0.01989041
     atom   51 type  1   force =     0.00040185    0.02007169    0.00336132
     atom   52 type  2   force =     0.02180201    0.01934827   -0.00574555
     atom   53 type  1   force =     0.01105399   -0.00116600    0.00366256
     atom   54 type  2   force =    -0.00022586    0.00077812   -0.00004989
     atom   55 type  3   force =     0.02215455    0.02129596   -0.01867858
     atom   56 type  2   force =     0.00403111    0.01771561   -0.01834129
     atom   57 type  3   force =     0.00112886   -0.00031698   -0.00187335
     atom   58 type  2   force =     0.03131632    0.00048590   -0.00122065
     atom   59 type  1   force =     0.00097728    0.01500801    0.01353953
     atom   60 type  2   force =     0.01476532    0.01730163    0.01588907
     atom   61 type  1   force =     0.00941457   -0.00254518    0.01397460
     atom   62 type  2   force =    -0.00237993   -0.00006019    0.02391230
     atom   63 type  1   force =     0.01450051    0.01601056    0.00146138
     atom   64 type  2   force =     0.00024758    0.02675122   -0.00170684

     Total force =     0.207351     Total SCF correction =     0.000228


     Computing stress (Cartesian axis) and pressure

          total   stress  (Ry/bohr**3)                   (kbar)     P=      -54.16
  -0.00042526  -0.00004504  -0.00007573          -62.56       -6.63      -11.14
  -0.00004504  -0.00040750   0.00000682           -6.63      -59.95        1.00
  -0.00007573   0.00000682  -0.00027174          -11.14        1.00      -39.97

 
     init_run     :      2.82s CPU      3.18s WALL (       1 calls)
     electrons    :    131.00s CPU    133.99s WALL (       1 calls)
     forces       :      1.62s CPU      1.68s WALL (       1 calls)
     stress       :     15.08s CPU     15.23s WALL (       1 calls)

     Called by init_run:
     wfcinit      :      2.38s CPU      2.47s WALL (       1 calls)
     potinit      :      0.22s CPU      0.24s WALL (       1 calls)
     hinit0       :      0.12s CPU      0.34s WALL (       1 calls)

     Called by electrons:
     c_bands      :    110.79s CPU    112.74s WALL (      21 calls)
     sum_band     :     13.91s CPU     14.45s WALL (      21 calls)
     v_of_rho     :      0.78s CPU      0.80s WALL (      22 calls)
     newd         :      1.27s CPU      1.61s WALL (      22 calls)
     PAW_pot      :      3.44s CPU      3.51s WALL (      22 calls)
     mix_rho      :      1.01s CPU      1.10s WALL (      21 calls)

     Called by c_bands:
     init_us_2    :      1.80s CPU      1.83s WALL (      90 calls)
     init_us_2:cp :      1.80s CPU      1.83s WALL (      90 calls)
     cegterg      :     95.06s CPU     96.88s WALL (      42 calls)

     Called by *egterg:
     cdiaghg      :      8.17s CPU      8.27s WALL (     204 calls)
     h_psi        :     50.40s CPU     51.17s WALL (     206 calls)
     s_psi        :     13.29s CPU     13.40s WALL (     206 calls)
     g_psi        :      0.22s CPU      0.22s WALL (     162 calls)

     Called by h_psi:
     h_psi:calbec :     12.93s CPU     13.03s WALL (     206 calls)
     vloc_psi     :     23.62s CPU     24.03s WALL (     206 calls)
     add_vuspsi   :     13.45s CPU     13.57s WALL (     206 calls)

     General routines
     calbec       :     19.47s CPU     19.64s WALL (     258 calls)
     fft          :      0.36s CPU      0.59s WALL (     267 calls)
     ffts         :      0.50s CPU      0.51s WALL (     441 calls)
     fftw         :     24.54s CPU     24.96s WALL (   52308 calls)
 
     Parallel routines
 
     PWSCF        :   2m30.77s CPU   2m35.45s WALL

 
   This run was terminated on:  16: 1:44  11May2026            

=------------------------------------------------------------------------------=
   JOB DONE.
=------------------------------------------------------------------------------=
