
     Program PWSCF v.7.1 starts on 14May2026 at 12:28:30 

     This program is part of the open-source Quantum ESPRESSO suite
     for quantum simulation of materials; please cite
         "P. Giannozzi et al., J. Phys.:Condens. Matter 21 395502 (2009);
         "P. Giannozzi et al., J. Phys.:Condens. Matter 29 465901 (2017);
         "P. Giannozzi et al., J. Chem. Phys. 152 154105 (2020);
          URL http://www.quantum-espresso.org", 
     in publications or presentations arising from this work. More details at
     http://www.quantum-espresso.org/quote

     Parallel version (MPI & OpenMP), running on      32 processor cores
     Number of MPI processes:                32
     Threads/MPI process:                     1

     MPI processes distributed on     1 nodes
     91133 MiB available memory on the printing compute node when the environment starts
 
     Reading input from TiAlN_x0625finalrelaxedresult.in

     Current dimensions of program PWSCF are:
     Max number of different atomic species (ntypx) = 10
     Max number of k-points (npk) = 150000
     Max angular momentum in pseudopotentials (lmaxx) =  4
     file Al.pbe-n-kjpaw_psl.1.0.0.UPF: wavefunction(s)  3S 3P renormalized
     file N.pbe-n-kjpaw_psl.1.0.0.UPF: wavefunction(s)  2S renormalized
     file Ti.pbe-spn-kjpaw_psl.1.0.0.UPF: wavefunction(s)  3S 3P 3D renormalized
 
     K-points division:     npool     =       4
     R & G space division:  proc/nbgrp/npool/nimage =       8
     Subspace diagonalization in iterative solution of the eigenvalue problem:
     one sub-group per band group will be used
     scalapack distributed-memory algorithm (size of sub-group:  2*  2 procs)

 
     Parallelization info
     --------------------
     sticks:   dense  smooth     PW     G-vecs:    dense   smooth      PW
     Min         583     583    159                29943    29943    4283
     Max         584     584    161                29946    29946    4284
     Sum        4669    4669   1281               239553   239553   34265
 
     Using Slab Decomposition
 


     bravais-lattice index     =            0
     lattice parameter (alat)  =      15.6233  a.u.
     unit-cell volume          =    3813.4601 (a.u.)^3
     number of atoms/cell      =           64
     number of atomic types    =            3
     number of electrons       =       364.00
     number of Kohn-Sham states=          218
     kinetic-energy cutoff     =      60.0000  Ry
     charge density cutoff     =     240.0000  Ry
     scf convergence threshold =      1.0E-08
     mixing beta               =       0.2000
     number of iterations used =            8  local-TF  mixing
     Exchange-correlation= SLA  PW   PBX  PBC
                           (   1   4   3   4   0   0   0)

     celldm(1)=  15.623311  celldm(2)=   0.000000  celldm(3)=   0.000000
     celldm(4)=   0.000000  celldm(5)=   0.000000  celldm(6)=   0.000000

     crystal axes: (cart. coord. in units of alat)
               a(1) = (   1.000000   0.000000   0.000000 )  
               a(2) = (   0.000000   1.000000   0.000000 )  
               a(3) = (   0.000000   0.000000   1.000000 )  

     reciprocal axes: (cart. coord. in units 2 pi/alat)
               b(1) = (  1.000000  0.000000  0.000000 )  
               b(2) = (  0.000000  1.000000  0.000000 )  
               b(3) = (  0.000000  0.000000  1.000000 )  


     PseudoPot. # 1 for Al read from file:
     ../../../pseudo/Al.pbe-n-kjpaw_psl.1.0.0.UPF
     MD5 check sum: 502b6b27b9c6270cab5dd1084b96fa6d
     Pseudo is Projector augmented-wave + core cor, Zval =  3.0
     Generated using &quot;atomic&quot; code by A. Dal Corso  v.6.3
     Shape of augmentation charge: PSQ
     Using radial grid of 1135 points,  6 beta functions with: 
                l(1) =   0
                l(2) =   0
                l(3) =   1
                l(4) =   1
                l(5) =   2
                l(6) =   2
     Q(r) pseudized with 0 coefficients 


     PseudoPot. # 2 for N  read from file:
     ../../../pseudo/N.pbe-n-kjpaw_psl.1.0.0.UPF
     MD5 check sum: 14c48229446f9f2d411169a3abcbc3fa
     Pseudo is Projector augmented-wave + core cor, Zval =  5.0
     Generated using &quot;atomic&quot; code by A. Dal Corso  v.6.3
     Shape of augmentation charge: PSQ
     Using radial grid of 1085 points,  4 beta functions with: 
                l(1) =   0
                l(2) =   0
                l(3) =   1
                l(4) =   1
     Q(r) pseudized with 0 coefficients 


     PseudoPot. # 3 for Ti read from file:
     ../../../pseudo/Ti.pbe-spn-kjpaw_psl.1.0.0.UPF
     MD5 check sum: 01f69b0d8ba4438b2e03ac6ea4af1c0b
     Pseudo is Projector augmented-wave + core cor, Zval = 12.0
     Generated using &quot;atomic&quot; code by A. Dal Corso  v.6.2.2
     Shape of augmentation charge: PSQ
     Using radial grid of 1177 points,  6 beta functions with: 
                l(1) =   0
                l(2) =   0
                l(3) =   1
                l(4) =   1
                l(5) =   2
                l(6) =   2
     Q(r) pseudized with 0 coefficients 


     atomic species   valence    mass     pseudopotential
        Al             3.00    26.98200     Al( 1.00)
        N              5.00    14.00700     N ( 1.00)
        Ti            12.00    47.86700     Ti( 1.00)

     No symmetry found



   Cartesian axes

     site n.     atom                  positions (alat units)
         1           Al  tau(   1) = (   0.0035942   0.0046356  -0.0055326  )
         2           N   tau(   2) = (   0.2491449   0.0009627  -0.0068031  )
         3           Ti  tau(   3) = (  -0.0052791   0.2486145   0.2581984  )
         4           N   tau(   4) = (   0.2518190   0.2581514   0.2488083  )
         5           Ti  tau(   5) = (   0.2476481  -0.0004186   0.2541672  )
         6           N   tau(   6) = (   0.0003082  -0.0005409   0.2464291  )
         7           Al  tau(   7) = (   0.2499243   0.2502344  -0.0013601  )
         8           N   tau(   8) = (   0.0022136   0.2483056  -0.0032654  )
         9           Al  tau(   9) = (  -0.0005099  -0.0030551   0.5085831  )
        10           N   tau(  10) = (   0.2425640   0.0047389   0.5092725  )
        11           Ti  tau(  11) = (  -0.0067418   0.2578276   0.7394272  )
        12           N   tau(  12) = (   0.2534908   0.2524545   0.7517327  )
        13           Al  tau(  13) = (   0.2510684  -0.0003314   0.7514190  )
        14           N   tau(  14) = (  -0.0002867  -0.0039509   0.7528946  )
        15           Al  tau(  15) = (   0.2503125   0.2500045   0.5033462  )
        16           N   tau(  16) = (   0.0080307   0.2376343   0.5010206  )
        17           Al  tau(  17) = (   0.0018731   0.4967707  -0.0007578  )
        18           N   tau(  18) = (   0.2496576   0.4987224  -0.0020116  )
        19           Ti  tau(  19) = (   0.0028374   0.7521537   0.2560376  )
        20           N   tau(  20) = (   0.2600052   0.7395717   0.2413185  )
        21           Al  tau(  21) = (   0.2515851   0.4970497   0.2429360  )
        22           N   tau(  22) = (   0.0001392   0.5019149   0.2381123  )
        23           Al  tau(  23) = (   0.2513779   0.7495034  -0.0024957  )
        24           N   tau(  24) = (   0.0056058   0.7535936  -0.0065602  )
        25           Ti  tau(  25) = (  -0.0022029   0.4964248   0.4957434  )
        26           N   tau(  26) = (   0.2486092   0.4924653   0.5003000  )
        27           Al  tau(  27) = (   0.0007320   0.7506281   0.7509685  )
        28           N   tau(  28) = (   0.2522579   0.7480495   0.7547704  )
        29           Al  tau(  29) = (   0.2528036   0.5010721   0.7537666  )
        30           N   tau(  30) = (  -0.0003694   0.5075442   0.7579036  )
        31           Ti  tau(  31) = (   0.2491235   0.7465051   0.4937721  )
        32           N   tau(  32) = (  -0.0061800   0.7578931   0.5105831  )
        33           Al  tau(  33) = (   0.4970310   0.0007814  -0.0031561  )
        34           N   tau(  34) = (   0.7518432   0.0057784  -0.0074332  )
        35           Ti  tau(  35) = (   0.5061728   0.2415595   0.2589713  )
        36           N   tau(  36) = (   0.7486968   0.2625620   0.2379614  )
        37           Ti  tau(  37) = (   0.7514754   0.0053088   0.2546845  )
        38           N   tau(  38) = (   0.4995858  -0.0121547   0.2372535  )
        39           Al  tau(  39) = (   0.7491614   0.2512584  -0.0031400  )
        40           N   tau(  40) = (   0.4976981   0.2493596  -0.0055498  )
        41           Ti  tau(  41) = (   0.5016496   0.0044889   0.4914561  )
        42           N   tau(  42) = (   0.7578263  -0.0068720   0.5108674  )
        43           Al  tau(  43) = (   0.4985278   0.2487742   0.7547706  )
        44           N   tau(  44) = (   0.7430148   0.2538415   0.7561708  )
        45           Al  tau(  45) = (   0.7479734  -0.0024242   0.7506514  )
        46           N   tau(  46) = (   0.5001089  -0.0018014   0.7566845  )
        47           Ti  tau(  47) = (   0.7467763   0.2508544   0.4940687  )
        48           N   tau(  48) = (   0.4900198   0.2486964   0.5128356  )
        49           Al  tau(  49) = (   0.4992365   0.4982957  -0.0005018  )
        50           N   tau(  50) = (   0.7510281   0.4978468  -0.0014502  )
        51           Al  tau(  51) = (   0.5002295   0.7472341   0.2466709  )
        52           N   tau(  52) = (   0.7421390   0.7414530   0.2576620  )
        53           Al  tau(  53) = (   0.7489487   0.5016379   0.2449731  )
        54           N   tau(  54) = (   0.5005804   0.5050748   0.2415679  )
        55           Ti  tau(  55) = (   0.7568019   0.7564433   0.0089476  )
        56           N   tau(  56) = (   0.4978918   0.7496118  -0.0025677  )
        57           Ti  tau(  57) = (   0.5020887   0.4941287   0.4959701  )
        58           N   tau(  58) = (   0.7502100   0.5068910   0.5015386  )
        59           Al  tau(  59) = (   0.4999108   0.7509669   0.7516663  )
        60           N   tau(  60) = (   0.7481172   0.7485132   0.7486087  )
        61           Al  tau(  61) = (   0.7461471   0.5047320   0.7541958  )
        62           N   tau(  62) = (   0.4999585   0.5019218   0.7567888  )
        63           Al  tau(  63) = (   0.7486313   0.7500407   0.5035681  )
        64           N   tau(  64) = (   0.5053627   0.7500675   0.5025406  )

     number of k points=     8  Gaussian smearing, width (Ry)=  0.0050
                       cart. coord. in units 2pi/alat
        k(    1) = (   0.0000000   0.0000000   0.0000000), wk =   0.2500000
        k(    2) = (   0.0000000   0.0000000  -0.5000000), wk =   0.2500000
        k(    3) = (   0.0000000  -0.5000000  -0.5000000), wk =   0.2500000
        k(    4) = (  -0.5000000  -0.5000000  -0.5000000), wk =   0.2500000
        k(    5) = (  -0.5000000   0.0000000   0.0000000), wk =   0.2500000
        k(    6) = (   0.0000000  -0.5000000   0.0000000), wk =   0.2500000
        k(    7) = (  -0.5000000   0.0000000   0.5000000), wk =   0.2500000
        k(    8) = (  -0.5000000   0.5000000   0.0000000), wk =   0.2500000

     Dense  grid:   239553 G-vectors     FFT dimensions: (  80,  80,  80)

     Estimated max dynamical RAM per process >     186.84 MB

     Estimated total dynamical RAM >       5.67 GB

     Check: negative core charge=   -0.000017

     Initial potential from superposition of free atoms

     starting charge     363.9362, renormalised to     364.0000
     Starting wfcs are  328 randomized atomic wfcs
     Checking if some PAW data can be deallocated... 

     total cpu time spent up to now is        3.7 secs

     Self-consistent Calculation

     iteration #  1     ecut=    60.00 Ry     beta= 0.20
     Davidson diagonalization with overlap
     ethr =  1.00E-02,  avg # of iterations =  2.0

     total cpu time spent up to now is        9.4 secs

     total energy              =   -3905.51748255 Ry
     estimated scf accuracy    <      17.38855948 Ry

     iteration #  2     ecut=    60.00 Ry     beta= 0.20
     Davidson diagonalization with overlap
     ethr =  4.78E-03,  avg # of iterations =  1.0

     total cpu time spent up to now is       14.0 secs

     total energy              =   -3901.33343144 Ry
     estimated scf accuracy    <       9.79928912 Ry

     iteration #  3     ecut=    60.00 Ry     beta= 0.20
     Davidson diagonalization with overlap
     ethr =  2.69E-03,  avg # of iterations =  2.2

     total cpu time spent up to now is       20.3 secs

     total energy              =   -3903.55898343 Ry
     estimated scf accuracy    <       0.53655949 Ry

     iteration #  4     ecut=    60.00 Ry     beta= 0.20
     Davidson diagonalization with overlap
     ethr =  1.47E-04,  avg # of iterations =  7.5

     total cpu time spent up to now is       27.2 secs

     total energy              =   -3903.60804818 Ry
     estimated scf accuracy    <       0.43252523 Ry

     iteration #  5     ecut=    60.00 Ry     beta= 0.20
     Davidson diagonalization with overlap
     ethr =  1.19E-04,  avg # of iterations =  1.0

     total cpu time spent up to now is       31.9 secs

     total energy              =   -3903.56788986 Ry
     estimated scf accuracy    <       0.23480157 Ry

     iteration #  6     ecut=    60.00 Ry     beta= 0.20
     Davidson diagonalization with overlap
     ethr =  6.45E-05,  avg # of iterations =  1.0

     total cpu time spent up to now is       36.5 secs

     total energy              =   -3903.56808299 Ry
     estimated scf accuracy    <       0.04386064 Ry

     iteration #  7     ecut=    60.00 Ry     beta= 0.20
     Davidson diagonalization with overlap
     ethr =  1.20E-05,  avg # of iterations =  4.9

     total cpu time spent up to now is       43.0 secs

     total energy              =   -3903.57173566 Ry
     estimated scf accuracy    <       0.01325545 Ry

     iteration #  8     ecut=    60.00 Ry     beta= 0.20
     Davidson diagonalization with overlap
     ethr =  3.64E-06,  avg # of iterations =  4.2

     total cpu time spent up to now is       49.1 secs

     total energy              =   -3903.57155955 Ry
     estimated scf accuracy    <       0.00517038 Ry

     iteration #  9     ecut=    60.00 Ry     beta= 0.20
     Davidson diagonalization with overlap
     ethr =  1.42E-06,  avg # of iterations =  2.6

     total cpu time spent up to now is       54.8 secs

     total energy              =   -3903.57197968 Ry
     estimated scf accuracy    <       0.00212499 Ry

     iteration # 10     ecut=    60.00 Ry     beta= 0.20
     Davidson diagonalization with overlap
     ethr =  5.84E-07,  avg # of iterations =  2.4

     total cpu time spent up to now is       60.3 secs

     total energy              =   -3903.57198869 Ry
     estimated scf accuracy    <       0.00075198 Ry

     iteration # 11     ecut=    60.00 Ry     beta= 0.20
     Davidson diagonalization with overlap
     ethr =  2.07E-07,  avg # of iterations =  7.9

     total cpu time spent up to now is       67.2 secs

     total energy              =   -3903.57199469 Ry
     estimated scf accuracy    <       0.00022545 Ry

     iteration # 12     ecut=    60.00 Ry     beta= 0.20
     Davidson diagonalization with overlap
     ethr =  6.19E-08,  avg # of iterations =  5.4

     total cpu time spent up to now is       74.9 secs

     total energy              =   -3903.57202719 Ry
     estimated scf accuracy    <       0.00008342 Ry

     iteration # 13     ecut=    60.00 Ry     beta= 0.20
     Davidson diagonalization with overlap
     ethr =  2.29E-08,  avg # of iterations =  3.6

     total cpu time spent up to now is       81.4 secs

     total energy              =   -3903.57203671 Ry
     estimated scf accuracy    <       0.00001071 Ry

     iteration # 14     ecut=    60.00 Ry     beta= 0.20
     Davidson diagonalization with overlap
     ethr =  2.94E-09,  avg # of iterations =  6.6

     total cpu time spent up to now is       89.5 secs

     total energy              =   -3903.57203589 Ry
     estimated scf accuracy    <       0.00000820 Ry

     iteration # 15     ecut=    60.00 Ry     beta= 0.20
     Davidson diagonalization with overlap
     ethr =  2.25E-09,  avg # of iterations =  2.0

     total cpu time spent up to now is       95.0 secs

     total energy              =   -3903.57203583 Ry
     estimated scf accuracy    <       0.00000244 Ry

     iteration # 16     ecut=    60.00 Ry     beta= 0.20
     Davidson diagonalization with overlap
     ethr =  6.69E-10,  avg # of iterations =  2.0

     total cpu time spent up to now is      100.7 secs

     total energy              =   -3903.57203593 Ry
     estimated scf accuracy    <       0.00000060 Ry

     iteration # 17     ecut=    60.00 Ry     beta= 0.20
     Davidson diagonalization with overlap
     ethr =  1.66E-10,  avg # of iterations =  2.4

     total cpu time spent up to now is      106.8 secs

     total energy              =   -3903.57203595 Ry
     estimated scf accuracy    <       0.00000032 Ry

     iteration # 18     ecut=    60.00 Ry     beta= 0.20
     Davidson diagonalization with overlap
     ethr =  8.82E-11,  avg # of iterations =  1.5

     total cpu time spent up to now is      112.0 secs

     total energy              =   -3903.57203593 Ry
     estimated scf accuracy    <       0.00000014 Ry

     iteration # 19     ecut=    60.00 Ry     beta= 0.20
     Davidson diagonalization with overlap
     ethr =  3.79E-11,  avg # of iterations =  4.0

     total cpu time spent up to now is      118.8 secs

     total energy              =   -3903.57203595 Ry
     estimated scf accuracy    <       0.00000005 Ry

     iteration # 20     ecut=    60.00 Ry     beta= 0.20
     Davidson diagonalization with overlap
     ethr =  1.35E-11,  avg # of iterations =  2.0

     total cpu time spent up to now is      124.2 secs

     total energy              =   -3903.57203596 Ry
     estimated scf accuracy    <       0.00000001 Ry

     iteration # 21     ecut=    60.00 Ry     beta= 0.20
     Davidson diagonalization with overlap
     ethr =  3.75E-12,  avg # of iterations =  2.4

     total cpu time spent up to now is      129.7 secs

     End of self-consistent calculation

          k = 0.0000 0.0000 0.0000 ( 29855 PWs)   bands (ev):

   -43.7062 -43.4102 -43.2682 -43.2349 -43.1541 -42.9766 -42.9422 -42.9292
   -42.9085 -42.8381 -42.8305 -42.7435 -20.1051 -20.0323 -19.9819 -19.8441
   -19.7875 -19.7605 -19.7109 -19.6965 -19.6675 -19.6530 -19.6134 -19.5903
   -19.5426 -19.5205 -19.4833 -19.4798 -19.4386 -19.4233 -19.4084 -19.4003
   -19.3464 -19.3440 -19.2830 -19.2645 -19.2341 -19.2046 -19.1935 -19.1661
   -19.1623 -19.1176 -19.0967 -19.0707 -19.0401 -19.0199 -18.9970 -18.9271
    -4.0032  -2.7844  -2.6536  -2.5878  -2.4828  -2.4447  -2.3707  -1.6534
    -1.6013  -1.5147  -1.4396  -1.4120  -1.3618  -1.3140  -1.2738  -1.2536
    -1.2346  -1.1649  -1.0370  -0.9879  -0.9424  -0.8737  -0.8508  -0.8276
    -0.7416  -0.6987  -0.5275  -0.4129  -0.3660  -0.3249  -0.3143  -0.2823
     4.8233   5.0772   5.2049   5.4255   6.3110   6.3286   6.4854   6.5342
     6.5693   6.6493   6.7732   6.8489   6.8924   6.9545   7.0985   7.2071
     7.2397   7.3366   7.4372   7.4487   7.5125   7.5297   7.6313   7.6535
     7.7670   7.7956   7.8317   7.8814   7.9980   8.0558   8.1599   8.2548
     8.3510   8.4603   8.5229   8.5701   8.6468   8.7410   8.7838   8.8555
     8.9463   8.9941   9.0469   9.0698   9.1090   9.1590   9.1956   9.2551
     9.2991   9.3899   9.4628   9.4735   9.6011   9.6822   9.7655   9.9155
    10.0676  10.0885  10.1635  10.2073  10.2722  10.2981  10.3690  10.4300
    10.4479  10.4887  10.5054  10.5743  10.5930  10.6443  10.6752  10.7339
    10.9333  10.9771  10.9937  11.1070  11.1337  11.1943  11.2069  11.2481
    11.2577  11.2841  11.3148  11.3425  11.3758  11.4128  11.4892  11.5363
    11.5816  11.5936  11.6451  11.6665  11.6930  12.6280  12.6504  12.6860
    12.6903  13.0622  13.0939  13.8393  13.8907  13.9245  14.2813  14.3804
    14.9942  15.0307  15.2274  15.4057  15.6726  15.6990  15.8046  15.9325
    15.9873  16.0066  16.1181  16.2103  16.2216  16.2989  16.3490  16.3729
    16.4340  16.4579  16.4799  16.5762  16.6347  16.7240  16.7605  16.7871
    16.8095  16.8694  16.9016  16.9218  16.9540  16.9828  16.9943  17.0766
    17.1399  17.1817

          k = 0.0000 0.0000-0.5000 ( 29958 PWs)   bands (ev):

   -43.7063 -43.4102 -43.2682 -43.2349 -43.1541 -42.9766 -42.9422 -42.9292
   -42.9085 -42.8381 -42.8306 -42.7435 -20.1051 -20.0324 -19.9820 -19.8441
   -19.7873 -19.7606 -19.7101 -19.6965 -19.6678 -19.6528 -19.6133 -19.5903
   -19.5425 -19.5205 -19.4833 -19.4798 -19.4386 -19.4234 -19.4084 -19.4003
   -19.3478 -19.3438 -19.2830 -19.2645 -19.2341 -19.2046 -19.1942 -19.1662
   -19.1624 -19.1173 -19.0965 -19.0707 -19.0401 -19.0197 -18.9972 -18.9268
    -3.7673  -3.3582  -2.4868  -2.4456  -2.3874  -2.2683  -2.2073  -2.0696
    -1.8358  -1.7460  -1.5941  -1.4164  -1.3796  -1.3514  -1.1884  -1.1492
    -1.1220  -1.1122  -0.9852  -0.9727  -0.9425  -0.8453  -0.7955  -0.6701
    -0.6076  -0.5674  -0.5141  -0.4958  -0.4408  -0.3802  -0.3426  -0.2941
     5.4110   5.5363   5.5876   5.7780   5.8341   5.9164   6.1389   6.1830
     6.3313   6.3514   6.6401   6.7468   6.7813   6.9295   7.0837   7.1161
     7.1905   7.2695   7.3642   7.3884   7.4443   7.5511   7.6318   7.6958
     7.7373   7.7770   7.8754   7.9349   7.9886   8.0224   8.0812   8.2342
     8.2486   8.2567   8.4094   8.4574   8.5978   8.6964   9.0850   9.1033
     9.1164   9.1896   9.2373   9.2573   9.2683   9.3319   9.4074   9.5211
     9.6257   9.6716   9.7173   9.7789   9.8832   9.9315   9.9710  10.0243
    10.0503  10.0962  10.1076  10.1637  10.1782  10.2117  10.2818  10.2998
    10.3726  10.3996  10.4266  10.4736  10.5274  10.5424  10.5698  10.6508
    10.6845  10.7468  10.8008  10.8182  10.9089  10.9590  11.1158  11.1495
    11.1658  11.2058  11.2455  11.3192  11.3486  11.4780  11.5351  11.5491
    11.5864  11.6016  11.6159  11.6699  12.0614  12.1004  12.1586  12.1782
    12.6961  13.7250  13.7691  13.8431  14.3048  14.4514  14.6370  14.6931
    14.9792  15.1130  15.1900  15.3639  15.4734  15.5944  15.6354  15.6491
    15.7300  15.9561  15.9988  16.0321  16.1501  16.1881  16.2966  16.3425
    16.3764  16.4047  16.4528  16.5009  16.5856  16.6735  16.7122  16.7794
    16.8055  16.8668  16.8934  16.9721  17.0253  17.0705  17.1400  17.2183
    17.2325  17.3495

          k = 0.0000-0.5000-0.5000 ( 29944 PWs)   bands (ev):

   -43.7063 -43.4102 -43.2681 -43.2350 -43.1541 -42.9765 -42.9394 -42.9339
   -42.9065 -42.8381 -42.8307 -42.7435 -20.1051 -20.0323 -19.9819 -19.8440
   -19.7861 -19.7563 -19.7041 -19.6959 -19.6683 -19.6559 -19.6149 -19.5876
   -19.5509 -19.5244 -19.5013 -19.4788 -19.4387 -19.4237 -19.4019 -19.3992
   -19.3541 -19.3127 -19.2935 -19.2630 -19.2412 -19.2130 -19.1897 -19.1598
   -19.1508 -19.1205 -19.0938 -19.0753 -19.0376 -19.0265 -18.9969 -18.9282
    -3.4284  -3.3618  -3.0430  -2.8530  -2.1496  -2.0583  -2.0155  -1.9911
    -1.8336  -1.7477  -1.7202  -1.5997  -1.3520  -1.2826  -1.2379  -1.1922
    -1.1226  -0.9950  -0.9756  -0.9416  -0.8560  -0.7985  -0.7102  -0.6618
    -0.6496  -0.5886  -0.5688  -0.4937  -0.4591  -0.4034  -0.3494  -0.3139
     5.4469   5.6002   5.6995   5.8722   5.9799   6.1668   6.3557   6.4996
     6.5459   6.5933   6.5969   6.6598   6.7171   6.7558   6.8516   6.9445
     6.9522   7.0511   7.0708   7.1431   7.1738   7.2998   7.3406   7.4078
     7.4945   7.6595   7.7462   7.9545   7.9744   8.0794   8.1571   8.2838
     8.3565   8.6067   8.7208   8.8374   8.8687   9.0178   9.0812   9.0913
     9.1276   9.1943   9.2314   9.2795   9.3070   9.4476   9.4820   9.4988
     9.5463   9.5817   9.6608   9.6779   9.7437   9.7615   9.8021   9.8928
    10.0288  10.0573  10.0755  10.1671  10.2244  10.2744  10.3051  10.3871
    10.4356  10.4625  10.5359  10.5640  10.6307  10.6774  10.6923  10.7061
    10.7637  10.7891  10.8456  10.9328  10.9966  11.0595  11.0915  11.1260
    11.1730  11.2071  11.2129  11.2404  11.3019  11.3304  11.3476  11.3997
    11.4755  11.5210  11.5376  11.5479  11.7640  11.8522  12.0845  12.1388
    13.6799  13.8747  14.0304  14.1863  14.2493  14.3457  14.7044  14.7508
    14.9364  15.0104  15.1725  15.2095  15.3840  15.4409  15.4850  15.5523
    15.5591  15.6357  15.8044  15.8998  16.0090  16.1331  16.1834  16.2216
    16.2579  16.2944  16.5011  16.5715  16.6058  16.6553  16.7299  16.7697
    16.7927  16.8731  16.9669  17.0206  17.0556  17.2530  17.3666  17.4538
    17.5006  17.6158

          k =-0.5000-0.5000-0.5000 ( 29992 PWs)   bands (ev):

   -43.7063 -43.4102 -43.2681 -43.2350 -43.1540 -42.9771 -42.9382 -42.9344
   -42.9067 -42.8381 -42.8307 -42.7436 -20.1051 -20.0323 -19.9818 -19.8443
   -19.7872 -19.7554 -19.7002 -19.6957 -19.6790 -19.6518 -19.6082 -19.5879
   -19.5401 -19.5308 -19.4977 -19.4760 -19.4429 -19.4290 -19.4103 -19.3820
   -19.3581 -19.3498 -19.2820 -19.2604 -19.2363 -19.1949 -19.1834 -19.1734
   -19.1505 -19.1241 -19.0931 -19.0809 -19.0417 -19.0185 -18.9963 -18.9276
    -3.1520  -3.0767  -2.9935  -2.9155  -2.7230  -2.5750  -2.4609  -2.3215
    -1.4577  -1.4161  -1.3306  -1.2951  -1.1588  -1.1549  -1.1105  -1.0397
    -1.0091  -0.9758  -0.9193  -0.8900  -0.8592  -0.7962  -0.7861  -0.7523
    -0.7491  -0.6696  -0.6506  -0.5960  -0.5616  -0.5360  -0.4607  -0.4213
     5.8553   5.8800   5.9264   6.0105   6.0722   6.0859   6.1401   6.2218
     6.2890   6.3331   6.3548   6.5380   6.5694   6.6188   6.7660   6.8427
     6.9032   6.9638   7.0057   7.1981   7.2462   7.2672   7.3706   7.6400
     8.0629   8.1224   8.2046   8.3143   8.3675   8.3862   8.4792   8.5069
     8.5442   8.5839   8.6215   8.7192   8.7835   8.8228   8.9025   8.9432
     8.9786   9.0123   9.0266   9.0532   9.1126   9.1632   9.1969   9.2495
     9.3079   9.3488   9.4613   9.5098   9.5152   9.5787   9.7445   9.9125
     9.9245   9.9522   9.9745  10.0860  10.1534  10.2544  10.2926  10.3414
    10.4211  10.4420  10.4727  10.4963  10.5454  10.5992  10.6375  10.7677
    10.7906  10.8085  10.8775  10.9624  11.0867  11.1302  11.2336  11.2439
    11.2625  11.3193  11.3676  11.4027  11.4570  11.5137  11.5530  11.6094
    11.6687  11.7323  11.7599  11.8084  11.8510  11.9536  11.9845  12.0114
    14.0007  14.1085  14.2057  14.3828  14.4158  14.4496  14.5061  14.6143
    14.7689  14.7887  14.8620  15.0712  15.1373  15.2787  15.3968  15.4690
    15.4943  15.5508  15.6473  15.6820  15.7501  15.8762  15.9461  16.0242
    16.1256  16.1620  16.4747  16.5386  16.6515  16.7381  16.7986  16.8367
    16.9701  17.0513  17.0942  17.1357  17.4818  17.5878  17.6070  17.6399
    17.7557  17.8021

          k =-0.5000 0.0000 0.0000 ( 29958 PWs)   bands (ev):

   -43.7063 -43.4102 -43.2682 -43.2349 -43.1541 -42.9774 -42.9408 -42.9297
   -42.9087 -42.8381 -42.8305 -42.7436 -20.1051 -20.0323 -19.9819 -19.8441
   -19.7862 -19.7572 -19.7008 -19.6962 -19.6795 -19.6465 -19.6091 -19.5891
   -19.5451 -19.5312 -19.4897 -19.4832 -19.4479 -19.4345 -19.4138 -19.3818
   -19.3534 -19.3300 -19.2853 -19.2575 -19.2363 -19.2011 -19.1844 -19.1684
   -19.1553 -19.1161 -19.1025 -19.0739 -19.0409 -19.0223 -18.9954 -18.9300
    -3.6544  -3.5491  -2.5113  -2.4232  -2.3277  -2.2880  -2.0965  -1.9960
    -1.9511  -1.7951  -1.5926  -1.4706  -1.2688  -1.1897  -1.1685  -1.1487
    -1.0928  -1.0430  -0.9637  -0.9461  -0.8979  -0.8821  -0.7874  -0.7375
    -0.6837  -0.6055  -0.5588  -0.5254  -0.4806  -0.4568  -0.4192  -0.2865
     5.4348   5.5172   5.5740   5.7349   5.7638   5.9165   6.0989   6.3058
     6.4775   6.5109   6.6571   6.7081   6.7360   6.8573   6.8934   6.9405
     6.9720   7.1742   7.2103   7.3511   7.4968   7.5459   7.6011   7.7004
     7.7822   7.8562   7.9039   7.9711   8.0705   8.1208   8.2304   8.2803
     8.3298   8.3670   8.4554   8.5370   8.6279   8.6661   9.1937   9.2145
     9.2370   9.2573   9.3390   9.3774   9.4101   9.4371   9.5443   9.7030
     9.7413   9.7691   9.8319   9.8523   9.8756   9.9262   9.9378   9.9707
    10.0308  10.0752  10.1023  10.1248  10.1852  10.1900  10.2621  10.3349
    10.3512  10.3637  10.4296  10.4689  10.4904  10.5201  10.5647  10.6666
    10.6956  10.7524  10.7792  10.7965  10.8618  10.8879  10.9088  10.9739
    11.0249  11.0954  11.1356  11.1542  11.2256  11.2856  11.3406  11.3704
    11.4333  11.5397  11.6093  11.6872  12.0867  12.1147  12.1168  12.2021
    13.2021  13.4949  13.9398  14.0507  14.1945  14.3800  14.6295  14.6788
    14.8762  14.9162  15.0648  15.2216  15.2789  15.4239  15.5312  15.5804
    15.7654  15.8175  15.9861  16.0414  16.1201  16.1641  16.1965  16.3125
    16.4142  16.4556  16.5874  16.6600  16.7216  16.7377  16.7965  16.8175
    16.8597  16.8776  16.9211  16.9551  16.9926  17.0755  17.1524  17.1633
    17.3687  17.4686

          k = 0.0000-0.5000 0.0000 ( 29958 PWs)   bands (ev):

   -43.7063 -43.4102 -43.2681 -43.2350 -43.1541 -42.9765 -42.9395 -42.9339
   -42.9065 -42.8381 -42.8307 -42.7435 -20.1051 -20.0323 -19.9819 -19.8440
   -19.7862 -19.7563 -19.7050 -19.6959 -19.6684 -19.6559 -19.6147 -19.5876
   -19.5509 -19.5244 -19.5013 -19.4789 -19.4387 -19.4237 -19.4014 -19.3993
   -19.3541 -19.3124 -19.2932 -19.2629 -19.2409 -19.2130 -19.1893 -19.1598
   -19.1507 -19.1209 -19.0939 -19.0752 -19.0378 -19.0268 -18.9966 -18.9285
    -3.6543  -3.5562  -2.5136  -2.3669  -2.3383  -2.2020  -2.1559  -1.9997
    -1.9233  -1.9178  -1.5357  -1.5157  -1.2479  -1.2368  -1.1629  -1.1186
    -1.1030  -1.0902  -1.0333  -0.9467  -0.9326  -0.8488  -0.7921  -0.7516
    -0.6238  -0.6006  -0.5438  -0.5157  -0.5023  -0.4179  -0.3514  -0.2813
     5.3139   5.5361   5.6693   5.7471   5.8668   5.9367   6.2150   6.2963
     6.5291   6.5645   6.6926   6.7101   6.7697   6.7862   6.8959   6.9594
     7.0006   7.0871   7.2882   7.3379   7.4315   7.5159   7.5861   7.6218
     7.6608   7.7752   7.8298   7.9031   8.0071   8.0697   8.1585   8.2233
     8.3493   8.4335   8.4671   8.5530   8.6270   8.8622   9.0737   9.1702
     9.1934   9.2252   9.2610   9.3171   9.3573   9.4107   9.4581   9.4820
     9.6283   9.6928   9.8119   9.8439   9.9362   9.9422   9.9587  10.0220
    10.0494  10.1020  10.1321  10.1796  10.2361  10.2473  10.2630  10.3088
    10.3244  10.4164  10.4698  10.5034  10.5171  10.6326  10.6642  10.6873
    10.6951  10.7221  10.7601  10.8264  10.8806  10.9243  10.9737  11.0427
    11.1102  11.1336  11.1700  11.1966  11.2291  11.3008  11.3673  11.4423
    11.4876  11.5450  11.6148  11.6825  12.1002  12.1071  12.1602  12.1806
    13.1540  13.6049  13.7702  14.0112  14.2309  14.2741  14.6969  14.7035
    14.7246  15.0046  15.1435  15.1927  15.4068  15.5363  15.5949  15.7333
    15.7829  15.8638  15.9456  16.0176  16.1569  16.1728  16.2987  16.3165
    16.3353  16.3979  16.5395  16.5720  16.6712  16.6937  16.7482  16.8312
    16.8573  16.8820  16.9049  16.9648  16.9916  17.0959  17.1270  17.1473
    17.2618  17.3290

          k =-0.5000 0.0000 0.5000 ( 29944 PWs)   bands (ev):

   -43.7063 -43.4102 -43.2682 -43.2349 -43.1540 -42.9774 -42.9408 -42.9297
   -42.9087 -42.8381 -42.8305 -42.7436 -20.1051 -20.0323 -19.9819 -19.8441
   -19.7861 -19.7571 -19.7001 -19.6962 -19.6795 -19.6465 -19.6090 -19.5891
   -19.5451 -19.5312 -19.4898 -19.4832 -19.4479 -19.4345 -19.4139 -19.3822
   -19.3533 -19.3304 -19.2852 -19.2577 -19.2366 -19.2018 -19.1842 -19.1684
   -19.1553 -19.1159 -19.1023 -19.0740 -19.0408 -19.0221 -18.9956 -18.9297
    -3.4509  -3.3192  -2.9950  -2.9447  -2.1329  -2.0469  -2.0301  -1.9960
    -1.8570  -1.7491  -1.7167  -1.6438  -1.3340  -1.2227  -1.1873  -1.1143
    -1.0853  -1.0099  -0.9422  -0.8992  -0.8504  -0.7911  -0.7635  -0.6850
    -0.6667  -0.6011  -0.5707  -0.5602  -0.4740  -0.4356  -0.4037  -0.2953
     5.4591   5.5885   5.7110   5.9178   5.9810   6.1548   6.3312   6.4232
     6.4252   6.5198   6.5249   6.6124   6.6625   6.6754   6.7787   6.8955
     6.9227   7.0742   7.1129   7.2371   7.2801   7.3203   7.4747   7.5185
     7.5901   7.6102   7.7196   7.7897   7.9986   8.1550   8.3322   8.3419
     8.6083   8.6781   8.7882   8.8466   8.9395   9.0089   9.0805   9.1294
     9.1576   9.1764   9.2052   9.2710   9.3437   9.4776   9.5460   9.5862
     9.6254   9.6311   9.7025   9.7438   9.7679   9.7805   9.8016   9.8812
    10.0183  10.0419  10.1204  10.1543  10.1665  10.2427  10.2627  10.3164
    10.3493  10.3931  10.4599  10.5028  10.5319  10.5572  10.5790  10.6800
    10.7008  10.7983  10.8739  10.9272  10.9680  11.0089  11.0320  11.0720
    11.0999  11.1621  11.1900  11.2458  11.2712  11.3315  11.3733  11.4034
    11.4877  11.5044  11.5120  11.5489  11.7903  11.8628  12.0188  12.2045
    13.8728  13.9645  14.0290  14.1094  14.2054  14.3969  14.6791  14.7487
    14.8834  15.0345  15.0635  15.2296  15.2877  15.3532  15.4232  15.5067
    15.5729  15.6375  15.7226  15.7508  15.9951  16.0897  16.2181  16.2402
    16.2978  16.4178  16.4648  16.5705  16.6804  16.7214  16.7864  16.8161
    16.8583  16.8994  16.9334  16.9669  17.0460  17.1406  17.2980  17.5134
    17.5574  17.6683

          k =-0.5000 0.5000 0.0000 ( 29944 PWs)   bands (ev):

   -43.7063 -43.4102 -43.2681 -43.2350 -43.1540 -42.9771 -42.9382 -42.9344
   -42.9067 -42.8381 -42.8307 -42.7436 -20.1051 -20.0323 -19.9818 -19.8443
   -19.7872 -19.7554 -19.7011 -19.6958 -19.6790 -19.6517 -19.6081 -19.5879
   -19.5400 -19.5307 -19.4976 -19.4761 -19.4429 -19.4290 -19.4103 -19.3820
   -19.3584 -19.3485 -19.2815 -19.2604 -19.2363 -19.1947 -19.1832 -19.1734
   -19.1504 -19.1246 -19.0932 -19.0809 -19.0419 -19.0187 -18.9960 -18.9278
    -3.3391  -3.2455  -3.1946  -3.1060  -2.0568  -1.9738  -1.9691  -1.8849
    -1.8366  -1.7406  -1.6256  -1.5901  -1.3642  -1.2431  -1.2084  -1.1634
    -1.1198  -1.1098  -0.9804  -0.8933  -0.8114  -0.7919  -0.7327  -0.7223
    -0.6893  -0.6511  -0.5663  -0.5165  -0.4974  -0.4641  -0.3856  -0.3427
     5.4621   5.5568   5.7874   5.9185   5.9725   6.0602   6.1691   6.1981
     6.6411   6.6528   6.6708   6.7481   6.7922   6.8363   6.8893   6.9077
     6.9572   6.9941   7.1000   7.1672   7.2076   7.2598   7.3393   7.4071
     7.4602   7.5373   7.5945   7.7815   7.9416   8.1677   8.2002   8.3246
     8.6791   8.7753   8.8359   8.8625   8.9767   9.0066   9.0812   9.1575
     9.2447   9.2912   9.3467   9.4958   9.5584   9.5685   9.5706   9.6040
     9.6357   9.6770   9.7417   9.7808   9.8342   9.8471   9.8989   9.9526
    10.0006  10.0440  10.0915  10.1078  10.1561  10.1977  10.2256  10.2452
    10.3165  10.3446  10.4012  10.4679  10.4847  10.5429  10.5733  10.6108
    10.6515  10.6951  10.7321  10.7627  10.9249  10.9371  11.0035  11.0270
    11.0547  11.0774  11.1531  11.1881  11.2123  11.2566  11.2856  11.4389
    11.4621  11.4926  11.5516  11.6705  11.9091  11.9480  12.1179  12.1353
    13.9091  14.0893  14.1718  14.2983  14.4513  14.4724  14.5301  14.6035
    14.7800  14.7923  14.8354  15.1189  15.1819  15.3299  15.4827  15.5772
    15.6161  15.6657  15.7097  15.7951  15.8737  15.9985  16.0244  16.1613
    16.2856  16.3829  16.4441  16.6797  16.6942  16.7429  16.8102  16.8777
    16.9264  16.9946  17.0392  17.1079  17.1787  17.1965  17.3631  17.4322
    17.5160  17.5646

     the Fermi energy is    14.4611 ev

!    total energy              =   -3903.57203596 Ry
     total all-electron energy =    -33715.064102 Ry
     estimated scf accuracy    <          5.7E-09 Ry
     smearing contrib. (-TS)   =      -0.00239732 Ry
     internal energy E=F+TS    =   -3903.56963864 Ry

     The total energy is F=E-TS. E is the sum of the following terms:
     one-electron contribution =    -654.63032940 Ry
     hartree contribution      =     572.13948103 Ry
     xc contribution           =    -466.26189232 Ry
     ewald contribution        =   -1622.48672661 Ry
     one-center paw contrib.   =   -1732.33017134 Ry

     convergence has been achieved in  21 iterations

     Forces acting on atoms (cartesian axes, Ry/au):

     atom    1 type  1   force =     0.00071661    0.00075260   -0.00037526
     atom    2 type  2   force =    -0.00028558    0.00010047    0.00041107
     atom    3 type  3   force =    -0.00022471   -0.00011213   -0.00007332
     atom    4 type  2   force =    -0.00003052    0.00025482    0.00002323
     atom    5 type  3   force =    -0.00046048   -0.00054960    0.00012983
     atom    6 type  2   force =     0.00039302   -0.00013338    0.00035489
     atom    7 type  1   force =     0.00048984    0.00013398   -0.00102659
     atom    8 type  2   force =    -0.00039062   -0.00013373    0.00024718
     atom    9 type  1   force =    -0.00051606   -0.00031070    0.00013978
     atom   10 type  2   force =    -0.00096614    0.00023165   -0.00070474
     atom   11 type  3   force =    -0.00095332   -0.00039587    0.00077171
     atom   12 type  2   force =     0.00014178   -0.00024653   -0.00155412
     atom   13 type  1   force =    -0.00012261   -0.00028643    0.00006125
     atom   14 type  2   force =     0.00004474    0.00019069    0.00020218
     atom   15 type  1   force =    -0.00052520   -0.00070864   -0.00028950
     atom   16 type  2   force =     0.00058832   -0.00046460    0.00016109
     atom   17 type  1   force =     0.00033286    0.00040434    0.00045476
     atom   18 type  2   force =    -0.00015244   -0.00022218    0.00007315
     atom   19 type  3   force =    -0.00005970   -0.00008806    0.00040718
     atom   20 type  2   force =     0.00064380   -0.00023716    0.00059087
     atom   21 type  1   force =    -0.00011707   -0.00046663   -0.00011123
     atom   22 type  2   force =     0.00005582    0.00009908    0.00028653
     atom   23 type  1   force =     0.00028420   -0.00030228    0.00038912
     atom   24 type  2   force =     0.00033199    0.00012570    0.00012821
     atom   25 type  3   force =    -0.00073772    0.00063581   -0.00042718
     atom   26 type  2   force =    -0.00059676   -0.00118693   -0.00037245
     atom   27 type  1   force =     0.00037250    0.00078560   -0.00044955
     atom   28 type  2   force =     0.00018689   -0.00023899   -0.00036051
     atom   29 type  1   force =    -0.00017076   -0.00032174    0.00007105
     atom   30 type  2   force =    -0.00027360    0.00041320   -0.00015177
     atom   31 type  3   force =    -0.00074018   -0.00037938   -0.00041077
     atom   32 type  2   force =     0.00001055    0.00072635   -0.00027411
     atom   33 type  1   force =    -0.00014212    0.00006563    0.00039188
     atom   34 type  2   force =     0.00020041    0.00052198    0.00034989
     atom   35 type  3   force =     0.00014654    0.00066049   -0.00072137
     atom   36 type  2   force =    -0.00034040    0.00009162    0.00067728
     atom   37 type  3   force =     0.00078422   -0.00047214    0.00096715
     atom   38 type  2   force =     0.00025756    0.00000244    0.00111694
     atom   39 type  1   force =    -0.00043732    0.00047894    0.00086591
     atom   40 type  2   force =     0.00026834   -0.00024242   -0.00010940
     atom   41 type  3   force =     0.00034412   -0.00075348    0.00101709
     atom   42 type  2   force =     0.00047968   -0.00011094   -0.00038096
     atom   43 type  1   force =     0.00003707   -0.00013124   -0.00039605
     atom   44 type  2   force =    -0.00011949    0.00010525   -0.00014518
     atom   45 type  1   force =     0.00003282    0.00045191   -0.00050320
     atom   46 type  2   force =    -0.00003436   -0.00014799    0.00036607
     atom   47 type  3   force =    -0.00009250   -0.00029367    0.00016985
     atom   48 type  2   force =    -0.00074803   -0.00069416   -0.00122345
     atom   49 type  1   force =     0.00003396    0.00022701   -0.00007213
     atom   50 type  2   force =     0.00023647    0.00029323    0.00066590
     atom   51 type  1   force =     0.00034962   -0.00015791    0.00002146
     atom   52 type  2   force =    -0.00060816   -0.00107438    0.00035320
     atom   53 type  1   force =     0.00046238   -0.00023982    0.00005099
     atom   54 type  2   force =     0.00031136    0.00058136    0.00015851
     atom   55 type  3   force =     0.00082551    0.00059632   -0.00021435
     atom   56 type  2   force =     0.00016836    0.00083395    0.00088814
     atom   57 type  3   force =     0.00025462    0.00006180   -0.00111485
     atom   58 type  2   force =     0.00007150    0.00038849   -0.00041587
     atom   59 type  1   force =    -0.00017481    0.00024628    0.00046579
     atom   60 type  2   force =    -0.00025166    0.00024252   -0.00038382
     atom   61 type  1   force =    -0.00019717    0.00056968   -0.00008544
     atom   62 type  2   force =    -0.00000786   -0.00013117   -0.00058814
     atom   63 type  1   force =     0.00045129    0.00027517   -0.00034396
     atom   64 type  2   force =     0.00016861   -0.00031412   -0.00014986

     Total force =     0.006445     Total SCF correction =     0.000248


     Computing stress (Cartesian axis) and pressure

          total   stress  (Ry/bohr**3)                   (kbar)     P=       44.05
   0.00025707  -0.00004828  -0.00008516           37.82       -7.10      -12.53
  -0.00004828   0.00026300   0.00000297           -7.10       38.69        0.44
  -0.00008516   0.00000297   0.00037818          -12.53        0.44       55.63

 
     init_run     :      2.73s CPU      2.92s WALL (       1 calls)
     electrons    :    123.37s CPU    126.09s WALL (       1 calls)
     forces       :      1.57s CPU      1.61s WALL (       1 calls)
     stress       :     14.45s CPU     14.58s WALL (       1 calls)

     Called by init_run:
     wfcinit      :      2.30s CPU      2.38s WALL (       1 calls)
     potinit      :      0.21s CPU      0.22s WALL (       1 calls)
     hinit0       :      0.12s CPU      0.18s WALL (       1 calls)

     Called by electrons:
     c_bands      :    103.67s CPU    105.52s WALL (      21 calls)
     sum_band     :     13.48s CPU     13.94s WALL (      21 calls)
     v_of_rho     :      0.77s CPU      0.78s WALL (      22 calls)
     newd         :      1.26s CPU      1.50s WALL (      22 calls)
     PAW_pot      :      3.43s CPU      3.52s WALL (      22 calls)
     mix_rho      :      0.94s CPU      1.03s WALL (      21 calls)

     Called by c_bands:
     init_us_2    :      1.71s CPU      1.74s WALL (      90 calls)
     init_us_2:cp :      1.71s CPU      1.74s WALL (      90 calls)
     cegterg      :     90.61s CPU     92.37s WALL (      42 calls)

     Called by *egterg:
     cdiaghg      :      7.04s CPU      7.16s WALL (     170 calls)
     h_psi        :     48.58s CPU     49.36s WALL (     172 calls)
     s_psi        :     12.21s CPU     12.31s WALL (     172 calls)
     g_psi        :      0.21s CPU      0.21s WALL (     128 calls)

     Called by h_psi:
     h_psi:calbec :     12.14s CPU     12.24s WALL (     172 calls)
     vloc_psi     :     23.80s CPU     24.20s WALL (     172 calls)
     add_vuspsi   :     12.27s CPU     12.39s WALL (     172 calls)

     General routines
     calbec       :     18.43s CPU     18.58s WALL (     224 calls)
     fft          :      0.37s CPU      0.42s WALL (     267 calls)
     ffts         :      0.47s CPU      0.47s WALL (     437 calls)
     fftw         :     24.62s CPU     25.04s WALL (   52848 calls)
 
     Parallel routines
 
     PWSCF        :   2m22.36s CPU   2m25.98s WALL

 
   This run was terminated on:  12:30:56  14May2026            

=------------------------------------------------------------------------------=
   JOB DONE.
=------------------------------------------------------------------------------=
