
     Program PWSCF v.7.1 starts on 28Apr2026 at 10:42:17 

     This program is part of the open-source Quantum ESPRESSO suite
     for quantum simulation of materials; please cite
         "P. Giannozzi et al., J. Phys.:Condens. Matter 21 395502 (2009);
         "P. Giannozzi et al., J. Phys.:Condens. Matter 29 465901 (2017);
         "P. Giannozzi et al., J. Chem. Phys. 152 154105 (2020);
          URL http://www.quantum-espresso.org", 
     in publications or presentations arising from this work. More details at
     http://www.quantum-espresso.org/quote

     Parallel version (MPI & OpenMP), running on       4 processor cores
     Number of MPI processes:                 4
     Threads/MPI process:                     1

     MPI processes distributed on     1 nodes
     380567 MiB available memory on the printing compute node when the environment starts
 
     Reading input from AlN_scf.in

     Current dimensions of program PWSCF are:
     Max number of different atomic species (ntypx) = 10
     Max number of k-points (npk) = 150000
     Max angular momentum in pseudopotentials (lmaxx) =  4
     file Al.pbe-n-kjpaw_psl.1.0.0.UPF: wavefunction(s)  3S 3P renormalized
     file N.pbe-n-kjpaw_psl.1.0.0.UPF: wavefunction(s)  2S renormalized
     Message from routine setup:
     using ibrav=0 with symmetry is DISCOURAGED, use correct ibrav instead
 
     K-points division:     npool     =       2
     R & G space division:  proc/nbgrp/npool/nimage =       2
     Subspace diagonalization in iterative solution of the eigenvalue problem:
     a serial algorithm will be used

 
     Parallelization info
     --------------------
     sticks:   dense  smooth     PW     G-vecs:    dense   smooth      PW
     Min         819     819    225                21799    21799    3187
     Max         820     820    226                21800    21800    3188
     Sum        1639    1639    451                43599    43599    6375
 
     Using Slab Decomposition
 


     bravais-lattice index     =            0
     lattice parameter (alat)  =       5.4385  a.u.
     unit-cell volume          =     113.7417 (a.u.)^3
     number of atoms/cell      =            2
     number of atomic types    =            2
     number of electrons       =         8.00
     number of Kohn-Sham states=            8
     kinetic-energy cutoff     =     200.0000  Ry
     charge density cutoff     =     800.0000  Ry
     scf convergence threshold =      1.0E-08
     mixing beta               =       0.2000
     number of iterations used =            8  local-TF  mixing
     Exchange-correlation= SLA  PW   PBX  PBC
                           (   1   4   3   4   0   0   0)

     celldm(1)=   5.438489  celldm(2)=   0.000000  celldm(3)=   0.000000
     celldm(4)=   0.000000  celldm(5)=   0.000000  celldm(6)=   0.000000

     crystal axes: (cart. coord. in units of alat)
               a(1) = (  -0.707107   0.000000   0.707107 )  
               a(2) = (   0.000000   0.707107   0.707107 )  
               a(3) = (  -0.707107   0.707107   0.000000 )  

     reciprocal axes: (cart. coord. in units 2 pi/alat)
               b(1) = ( -0.707107 -0.707107  0.707107 )  
               b(2) = (  0.707107  0.707107  0.707107 )  
               b(3) = ( -0.707107  0.707107 -0.707107 )  


     PseudoPot. # 1 for Al read from file:
     ../../pseudo/Al.pbe-n-kjpaw_psl.1.0.0.UPF
     MD5 check sum: 502b6b27b9c6270cab5dd1084b96fa6d
     Pseudo is Projector augmented-wave + core cor, Zval =  3.0
     Generated using &quot;atomic&quot; code by A. Dal Corso  v.6.3
     Shape of augmentation charge: PSQ
     Using radial grid of 1135 points,  6 beta functions with: 
                l(1) =   0
                l(2) =   0
                l(3) =   1
                l(4) =   1
                l(5) =   2
                l(6) =   2
     Q(r) pseudized with 0 coefficients 


     PseudoPot. # 2 for N  read from file:
     ../../pseudo/N.pbe-n-kjpaw_psl.1.0.0.UPF
     MD5 check sum: 14c48229446f9f2d411169a3abcbc3fa
     Pseudo is Projector augmented-wave + core cor, Zval =  5.0
     Generated using &quot;atomic&quot; code by A. Dal Corso  v.6.3
     Shape of augmentation charge: PSQ
     Using radial grid of 1085 points,  4 beta functions with: 
                l(1) =   0
                l(2) =   0
                l(3) =   1
                l(4) =   1
     Q(r) pseudized with 0 coefficients 


     atomic species   valence    mass     pseudopotential
        Al             3.00    26.98200     Al( 1.00)
        N              5.00    14.00700     N ( 1.00)

     48 Sym. Ops., with inversion, found



   Cartesian axes

     site n.     atom                  positions (alat units)
         1           Al  tau(   1) = (   0.0000000   0.0000000   0.0000000  )
         2           N   tau(   2) = (  -0.7071068   0.7071068   0.7071068  )

     number of k points=     3  Gaussian smearing, width (Ry)=  0.0050
                       cart. coord. in units 2pi/alat
        k(    1) = (   0.0000000   0.0000000   0.0000000), wk =   0.2500000
        k(    2) = (   0.3535534  -0.3535534   0.3535534), wk =   1.0000000
        k(    3) = (   0.0000000  -0.7071068   0.0000000), wk =   0.7500000

     Dense  grid:    43599 G-vectors     FFT dimensions: (  50,  50,  50)

     Estimated max dynamical RAM per process >      54.14 MB

     Estimated total dynamical RAM >     205.93 MB

     Initial potential from superposition of free atoms

     starting charge       7.9977, renormalised to       8.0000
     Starting wfcs are    8 randomized atomic wfcs
     Checking if some PAW data can be deallocated... 

     total cpu time spent up to now is        0.5 secs

     Self-consistent Calculation

     iteration #  1     ecut=   200.00 Ry     beta= 0.20
     Davidson diagonalization with overlap
     ethr =  1.00E-02,  avg # of iterations =  3.0

     total cpu time spent up to now is        0.7 secs

     total energy              =     -67.83683796 Ry
     estimated scf accuracy    <       0.59565129 Ry

     iteration #  2     ecut=   200.00 Ry     beta= 0.20
     Davidson diagonalization with overlap
     ethr =  7.45E-03,  avg # of iterations =  1.0

     total cpu time spent up to now is        0.9 secs

     total energy              =     -67.67874538 Ry
     estimated scf accuracy    <       0.34300775 Ry

     iteration #  3     ecut=   200.00 Ry     beta= 0.20
     Davidson diagonalization with overlap
     ethr =  4.29E-03,  avg # of iterations =  3.0

     total cpu time spent up to now is        1.1 secs

     total energy              =     -67.73928522 Ry
     estimated scf accuracy    <       0.01022807 Ry

     iteration #  4     ecut=   200.00 Ry     beta= 0.20
     Davidson diagonalization with overlap
     ethr =  1.28E-04,  avg # of iterations =  2.7

     total cpu time spent up to now is        1.3 secs

     total energy              =     -67.73926000 Ry
     estimated scf accuracy    <       0.00280315 Ry

     iteration #  5     ecut=   200.00 Ry     beta= 0.20
     Davidson diagonalization with overlap
     ethr =  3.50E-05,  avg # of iterations =  1.3

     total cpu time spent up to now is        1.5 secs

     total energy              =     -67.73946763 Ry
     estimated scf accuracy    <       0.00005925 Ry

     iteration #  6     ecut=   200.00 Ry     beta= 0.20
     Davidson diagonalization with overlap
     ethr =  7.41E-07,  avg # of iterations =  2.7

     total cpu time spent up to now is        1.7 secs

     total energy              =     -67.73941202 Ry
     estimated scf accuracy    <       0.00032749 Ry

     iteration #  7     ecut=   200.00 Ry     beta= 0.20
     Davidson diagonalization with overlap
     ethr =  7.41E-07,  avg # of iterations =  2.0

     total cpu time spent up to now is        1.9 secs

     total energy              =     -67.73947742 Ry
     estimated scf accuracy    <       0.00000043 Ry

     iteration #  8     ecut=   200.00 Ry     beta= 0.20
     Davidson diagonalization with overlap
     ethr =  5.38E-09,  avg # of iterations =  3.0

     total cpu time spent up to now is        2.1 secs

     total energy              =     -67.73947761 Ry
     estimated scf accuracy    <       0.00000183 Ry

     iteration #  9     ecut=   200.00 Ry     beta= 0.20
     Davidson diagonalization with overlap
     ethr =  5.38E-09,  avg # of iterations =  1.0

     total cpu time spent up to now is        2.3 secs

     total energy              =     -67.73947674 Ry
     estimated scf accuracy    <       0.00000154 Ry

     iteration # 10     ecut=   200.00 Ry     beta= 0.20
     Davidson diagonalization with overlap
     ethr =  5.38E-09,  avg # of iterations =  2.0

     total cpu time spent up to now is        2.6 secs

     total energy              =     -67.73947710 Ry
     estimated scf accuracy    <       0.00000008 Ry

     iteration # 11     ecut=   200.00 Ry     beta= 0.20
     Davidson diagonalization with overlap
     ethr =  9.51E-10,  avg # of iterations =  1.0

     total cpu time spent up to now is        2.8 secs

     total energy              =     -67.73947708 Ry
     estimated scf accuracy    <       0.00000005 Ry

     iteration # 12     ecut=   200.00 Ry     beta= 0.20
     Davidson diagonalization with overlap
     ethr =  6.69E-10,  avg # of iterations =  1.7

     total cpu time spent up to now is        2.9 secs

     End of self-consistent calculation

          k = 0.0000 0.0000 0.0000 (  5521 PWs)   bands (ev):

    -6.0632  11.5897  11.5897  11.5897  16.7849  23.0841  23.0841  23.0841

          k = 0.3536-0.3536 0.3536 (  5444 PWs)   bands (ev):

    -2.7292   2.9932  10.4761  10.4761  17.2168  21.7985  21.7985  24.5304

          k = 0.0000-0.7071 0.0000 (  5434 PWs)   bands (ev):

    -1.7162   3.9624   8.6548   8.6548  15.3985  16.3373  25.3890  28.2122

     the Fermi energy is    13.3017 ev

!    total energy              =     -67.73947709 Ry
     total all-electron energy =      -595.181055 Ry
     estimated scf accuracy    <          3.0E-09 Ry
     smearing contrib. (-TS)   =      -0.00000000 Ry
     internal energy E=F+TS    =     -67.73947709 Ry

     The total energy is F=E-TS. E is the sum of the following terms:
     one-electron contribution =       3.23272493 Ry
     hartree contribution      =       4.87571908 Ry
     xc contribution           =      -8.72468953 Ry
     ewald contribution        =     -24.51862769 Ry
     one-center paw contrib.   =     -42.60460389 Ry

     convergence has been achieved in  12 iterations

     Forces acting on atoms (cartesian axes, Ry/au):

     atom    1 type  1   force =    -0.00000000   -0.00000000    0.00000000
     atom    2 type  2   force =     0.00000000    0.00000000   -0.00000000

     Total force =     0.000000     Total SCF correction =     0.000000


     Computing stress (Cartesian axis) and pressure

          total   stress  (Ry/bohr**3)                   (kbar)     P=       69.36
   0.00047148   0.00000000   0.00000000           69.36        0.00        0.00
   0.00000000   0.00047148   0.00000000            0.00       69.36        0.00
   0.00000000  -0.00000000   0.00047148            0.00       -0.00       69.36


     Writing all to output data dir ../output/AlN.save/
 
     init_run     :      0.31s CPU      0.34s WALL (       1 calls)
     electrons    :      2.26s CPU      2.49s WALL (       1 calls)
     forces       :      0.06s CPU      0.07s WALL (       1 calls)
     stress       :      0.33s CPU      0.35s WALL (       1 calls)

     Called by init_run:
     wfcinit      :      0.02s CPU      0.02s WALL (       1 calls)
     potinit      :      0.08s CPU      0.08s WALL (       1 calls)
     hinit0       :      0.18s CPU      0.18s WALL (       1 calls)

     Called by electrons:
     c_bands      :      0.47s CPU      0.49s WALL (      12 calls)
     sum_band     :      0.45s CPU      0.54s WALL (      12 calls)
     v_of_rho     :      0.24s CPU      0.24s WALL (      13 calls)
     newd         :      0.31s CPU      0.41s WALL (      13 calls)
     PAW_pot      :      0.62s CPU      0.62s WALL (      13 calls)
     mix_rho      :      0.24s CPU      0.28s WALL (      12 calls)

     Called by c_bands:
     init_us_2    :      0.03s CPU      0.03s WALL (      54 calls)
     init_us_2:cp :      0.03s CPU      0.03s WALL (      54 calls)
     cegterg      :      0.39s CPU      0.40s WALL (      24 calls)

     Called by *egterg:
     cdiaghg      :      0.01s CPU      0.01s WALL (      73 calls)
     h_psi        :      0.36s CPU      0.37s WALL (      75 calls)
     s_psi        :      0.01s CPU      0.01s WALL (      75 calls)
     g_psi        :      0.00s CPU      0.00s WALL (      49 calls)

     Called by h_psi:
     h_psi:calbec :      0.01s CPU      0.01s WALL (      75 calls)
     vloc_psi     :      0.34s CPU      0.35s WALL (      75 calls)
     add_vuspsi   :      0.01s CPU      0.01s WALL (      75 calls)

     General routines
     calbec       :      0.02s CPU      0.02s WALL (     109 calls)
     fft          :      0.10s CPU      0.10s WALL (     168 calls)
     ffts         :      0.13s CPU      0.13s WALL (     221 calls)
     fftw         :      0.35s CPU      0.36s WALL (    1118 calls)
 
     Parallel routines
 
     PWSCF        :      3.08s CPU      3.39s WALL

 
   This run was terminated on:  10:42:20  28Apr2026            

=------------------------------------------------------------------------------=
   JOB DONE.
=------------------------------------------------------------------------------=
