
     Program PWSCF v.7.1 starts on 28Apr2026 at 11:35:58 

     This program is part of the open-source Quantum ESPRESSO suite
     for quantum simulation of materials; please cite
         "P. Giannozzi et al., J. Phys.:Condens. Matter 21 395502 (2009);
         "P. Giannozzi et al., J. Phys.:Condens. Matter 29 465901 (2017);
         "P. Giannozzi et al., J. Chem. Phys. 152 154105 (2020);
          URL http://www.quantum-espresso.org", 
     in publications or presentations arising from this work. More details at
     http://www.quantum-espresso.org/quote

     Parallel version (MPI & OpenMP), running on       4 processor cores
     Number of MPI processes:                 4
     Threads/MPI process:                     1

     MPI processes distributed on     1 nodes
     381506 MiB available memory on the printing compute node when the environment starts
 
     Reading input from AlN_kpoints20.in

     Current dimensions of program PWSCF are:
     Max number of different atomic species (ntypx) = 10
     Max number of k-points (npk) = 150000
     Max angular momentum in pseudopotentials (lmaxx) =  4
     file Al.pbe-n-kjpaw_psl.1.0.0.UPF: wavefunction(s)  3S 3P renormalized
     file N.pbe-n-kjpaw_psl.1.0.0.UPF: wavefunction(s)  2S renormalized
     Message from routine setup:
     using ibrav=0 with symmetry is DISCOURAGED, use correct ibrav instead
 
     K-points division:     npool     =       2
     R & G space division:  proc/nbgrp/npool/nimage =       2
     Subspace diagonalization in iterative solution of the eigenvalue problem:
     a serial algorithm will be used

 
     Parallelization info
     --------------------
     sticks:   dense  smooth     PW     G-vecs:    dense   smooth      PW
     Min         819     819    237                21799    21799    3426
     Max         820     820    238                21800    21800    3429
     Sum        1639    1639    475                43599    43599    6855
 
     Using Slab Decomposition
 


     bravais-lattice index     =            0
     lattice parameter (alat)  =       5.4385  a.u.
     unit-cell volume          =     113.7417 (a.u.)^3
     number of atoms/cell      =            2
     number of atomic types    =            2
     number of electrons       =         8.00
     number of Kohn-Sham states=            8
     kinetic-energy cutoff     =     200.0000  Ry
     charge density cutoff     =     800.0000  Ry
     scf convergence threshold =      1.0E-08
     mixing beta               =       0.2000
     number of iterations used =            8  local-TF  mixing
     Exchange-correlation= SLA  PW   PBX  PBC
                           (   1   4   3   4   0   0   0)

     celldm(1)=   5.438489  celldm(2)=   0.000000  celldm(3)=   0.000000
     celldm(4)=   0.000000  celldm(5)=   0.000000  celldm(6)=   0.000000

     crystal axes: (cart. coord. in units of alat)
               a(1) = (  -0.707107   0.000000   0.707107 )  
               a(2) = (   0.000000   0.707107   0.707107 )  
               a(3) = (  -0.707107   0.707107   0.000000 )  

     reciprocal axes: (cart. coord. in units 2 pi/alat)
               b(1) = ( -0.707107 -0.707107  0.707107 )  
               b(2) = (  0.707107  0.707107  0.707107 )  
               b(3) = ( -0.707107  0.707107 -0.707107 )  


     PseudoPot. # 1 for Al read from file:
     ../../pseudo/Al.pbe-n-kjpaw_psl.1.0.0.UPF
     MD5 check sum: 502b6b27b9c6270cab5dd1084b96fa6d
     Pseudo is Projector augmented-wave + core cor, Zval =  3.0
     Generated using &quot;atomic&quot; code by A. Dal Corso  v.6.3
     Shape of augmentation charge: PSQ
     Using radial grid of 1135 points,  6 beta functions with: 
                l(1) =   0
                l(2) =   0
                l(3) =   1
                l(4) =   1
                l(5) =   2
                l(6) =   2
     Q(r) pseudized with 0 coefficients 


     PseudoPot. # 2 for N  read from file:
     ../../pseudo/N.pbe-n-kjpaw_psl.1.0.0.UPF
     MD5 check sum: 14c48229446f9f2d411169a3abcbc3fa
     Pseudo is Projector augmented-wave + core cor, Zval =  5.0
     Generated using &quot;atomic&quot; code by A. Dal Corso  v.6.3
     Shape of augmentation charge: PSQ
     Using radial grid of 1085 points,  4 beta functions with: 
                l(1) =   0
                l(2) =   0
                l(3) =   1
                l(4) =   1
     Q(r) pseudized with 0 coefficients 


     atomic species   valence    mass     pseudopotential
        Al             3.00    26.98200     Al( 1.00)
        N              5.00    14.00700     N ( 1.00)

     48 Sym. Ops., with inversion, found



   Cartesian axes

     site n.     atom                  positions (alat units)
         1           Al  tau(   1) = (   0.0000000   0.0000000   0.0000000  )
         2           N   tau(   2) = (  -0.7071068   0.7071068   0.7071068  )

     number of k points=   256  Gaussian smearing, width (Ry)=  0.0050

     Number of k-points >= 100: set verbosity='high' to print them.

     Dense  grid:    43599 G-vectors     FFT dimensions: (  50,  50,  50)

     Estimated max dynamical RAM per process >      95.92 MB

     Estimated total dynamical RAM >     373.03 MB

     Initial potential from superposition of free atoms

     starting charge       7.9977, renormalised to       8.0000
     Starting wfcs are    8 randomized atomic wfcs
     Checking if some PAW data can be deallocated... 

     total cpu time spent up to now is        1.5 secs

     Self-consistent Calculation

     iteration #  1     ecut=   200.00 Ry     beta= 0.20
     Davidson diagonalization with overlap
     ethr =  1.00E-02,  avg # of iterations =  4.1

     total cpu time spent up to now is        5.9 secs

     total energy              =     -67.96462679 Ry
     estimated scf accuracy    <       0.41907844 Ry

     iteration #  2     ecut=   200.00 Ry     beta= 0.20
     Davidson diagonalization with overlap
     ethr =  5.24E-03,  avg # of iterations =  1.0

     total cpu time spent up to now is        8.8 secs

     total energy              =     -67.86451917 Ry
     estimated scf accuracy    <       0.23102847 Ry

     iteration #  3     ecut=   200.00 Ry     beta= 0.20
     Davidson diagonalization with overlap
     ethr =  2.89E-03,  avg # of iterations =  1.7

     total cpu time spent up to now is       11.8 secs

     total energy              =     -67.90318951 Ry
     estimated scf accuracy    <       0.00700324 Ry

     iteration #  4     ecut=   200.00 Ry     beta= 0.20
     Davidson diagonalization with overlap
     ethr =  8.75E-05,  avg # of iterations =  2.1

     total cpu time spent up to now is       15.2 secs

     total energy              =     -67.90319712 Ry
     estimated scf accuracy    <       0.00170200 Ry

     iteration #  5     ecut=   200.00 Ry     beta= 0.20
     Davidson diagonalization with overlap
     ethr =  2.13E-05,  avg # of iterations =  1.6

     total cpu time spent up to now is       18.2 secs

     total energy              =     -67.90341110 Ry
     estimated scf accuracy    <       0.00000984 Ry

     iteration #  6     ecut=   200.00 Ry     beta= 0.20
     Davidson diagonalization with overlap
     ethr =  1.23E-07,  avg # of iterations =  3.7

     total cpu time spent up to now is       22.4 secs

     total energy              =     -67.90336777 Ry
     estimated scf accuracy    <       0.00011823 Ry

     iteration #  7     ecut=   200.00 Ry     beta= 0.20
     Davidson diagonalization with overlap
     ethr =  1.23E-07,  avg # of iterations =  2.4

     total cpu time spent up to now is       26.0 secs

     total energy              =     -67.90339357 Ry
     estimated scf accuracy    <       0.00000336 Ry

     iteration #  8     ecut=   200.00 Ry     beta= 0.20
     Davidson diagonalization with overlap
     ethr =  4.20E-08,  avg # of iterations =  2.0

     total cpu time spent up to now is       29.2 secs

     total energy              =     -67.90339438 Ry
     estimated scf accuracy    <       0.00000026 Ry

     iteration #  9     ecut=   200.00 Ry     beta= 0.20
     Davidson diagonalization with overlap
     ethr =  3.19E-09,  avg # of iterations =  1.3

     total cpu time spent up to now is       32.2 secs

     total energy              =     -67.90339436 Ry
     estimated scf accuracy    <       0.00000008 Ry

     iteration # 10     ecut=   200.00 Ry     beta= 0.20
     Davidson diagonalization with overlap
     ethr =  9.66E-10,  avg # of iterations =  1.1

     total cpu time spent up to now is       35.0 secs

     End of self-consistent calculation

     Number of k-points >= 100: set verbosity='high' to print the bands.

     the Fermi energy is    12.9199 ev

!    total energy              =     -67.90339436 Ry
     total all-electron energy =      -595.344973 Ry
     estimated scf accuracy    <          6.3E-09 Ry
     smearing contrib. (-TS)   =      -0.00000000 Ry
     internal energy E=F+TS    =     -67.90339436 Ry

     The total energy is F=E-TS. E is the sum of the following terms:
     one-electron contribution =       3.32974542 Ry
     hartree contribution      =       4.56029717 Ry
     xc contribution           =      -8.64069158 Ry
     ewald contribution        =     -24.51862769 Ry
     one-center paw contrib.   =     -42.63411768 Ry

     convergence has been achieved in  10 iterations

     Forces acting on atoms (cartesian axes, Ry/au):

     atom    1 type  1   force =     0.00000000    0.00000000   -0.00000000
     atom    2 type  2   force =     0.00000000    0.00000000    0.00000000

     Total force =     0.000000     Total SCF correction =     0.000000


     Computing stress (Cartesian axis) and pressure

          total   stress  (Ry/bohr**3)                   (kbar)     P=        6.21
   0.00004222  -0.00000000  -0.00000000            6.21       -0.00       -0.00
  -0.00000000   0.00004222  -0.00000000           -0.00        6.21       -0.00
   0.00000000   0.00000000   0.00004222            0.00        0.00        6.21


     Writing all to output data dir ../output/AlN.save/
 
     init_run     :      1.34s CPU      1.39s WALL (       1 calls)
     electrons    :     32.83s CPU     33.52s WALL (       1 calls)
     forces       :      0.39s CPU      0.40s WALL (       1 calls)
     stress       :      1.40s CPU      1.42s WALL (       1 calls)

     Called by init_run:
     wfcinit      :      1.02s CPU      1.06s WALL (       1 calls)
     potinit      :      0.07s CPU      0.08s WALL (       1 calls)
     hinit0       :      0.18s CPU      0.18s WALL (       1 calls)

     Called by electrons:
     c_bands      :     26.38s CPU     26.81s WALL (      10 calls)
     sum_band     :      5.34s CPU      5.49s WALL (      10 calls)
     v_of_rho     :      0.20s CPU      0.21s WALL (      11 calls)
     newd         :      0.26s CPU      0.34s WALL (      11 calls)
     PAW_pot      :      0.52s CPU      0.53s WALL (      11 calls)
     mix_rho      :      0.20s CPU      0.22s WALL (      10 calls)

     Called by c_bands:
     init_us_2    :      1.39s CPU      1.42s WALL (    2944 calls)
     init_us_2:cp :      1.38s CPU      1.42s WALL (    2944 calls)
     cegterg      :     22.12s CPU     22.48s WALL (    1280 calls)

     Called by *egterg:
     cdiaghg      :      0.34s CPU      0.35s WALL (    4091 calls)
     h_psi        :     20.32s CPU     20.65s WALL (    4219 calls)
     s_psi        :      0.48s CPU      0.49s WALL (    4219 calls)
     g_psi        :      0.13s CPU      0.13s WALL (    2811 calls)

     Called by h_psi:
     h_psi:calbec :      0.60s CPU      0.62s WALL (    4219 calls)
     vloc_psi     :     19.03s CPU     19.34s WALL (    4219 calls)
     add_vuspsi   :      0.53s CPU      0.54s WALL (    4219 calls)

     General routines
     calbec       :      0.87s CPU      0.89s WALL (    6139 calls)
     fft          :      0.09s CPU      0.09s WALL (     146 calls)
     ffts         :      0.10s CPU      0.10s WALL (     177 calls)
     fftw         :     19.48s CPU     19.78s WALL (   61392 calls)
 
     Parallel routines
 
     PWSCF        :     36.42s CPU     37.61s WALL

 
   This run was terminated on:  11:36:35  28Apr2026            

=------------------------------------------------------------------------------=
   JOB DONE.
=------------------------------------------------------------------------------=
