
     Program PWSCF v.7.1 starts on 28Apr2026 at 11:35:24 

     This program is part of the open-source Quantum ESPRESSO suite
     for quantum simulation of materials; please cite
         "P. Giannozzi et al., J. Phys.:Condens. Matter 21 395502 (2009);
         "P. Giannozzi et al., J. Phys.:Condens. Matter 29 465901 (2017);
         "P. Giannozzi et al., J. Chem. Phys. 152 154105 (2020);
          URL http://www.quantum-espresso.org", 
     in publications or presentations arising from this work. More details at
     http://www.quantum-espresso.org/quote

     Parallel version (MPI & OpenMP), running on       4 processor cores
     Number of MPI processes:                 4
     Threads/MPI process:                     1

     MPI processes distributed on     1 nodes
     381671 MiB available memory on the printing compute node when the environment starts
 
     Reading input from AlN_kpoints10.in

     Current dimensions of program PWSCF are:
     Max number of different atomic species (ntypx) = 10
     Max number of k-points (npk) = 150000
     Max angular momentum in pseudopotentials (lmaxx) =  4
     file Al.pbe-n-kjpaw_psl.1.0.0.UPF: wavefunction(s)  3S 3P renormalized
     file N.pbe-n-kjpaw_psl.1.0.0.UPF: wavefunction(s)  2S renormalized
     Message from routine setup:
     using ibrav=0 with symmetry is DISCOURAGED, use correct ibrav instead
 
     K-points division:     npool     =       2
     R & G space division:  proc/nbgrp/npool/nimage =       2
     Subspace diagonalization in iterative solution of the eigenvalue problem:
     a serial algorithm will be used

 
     Parallelization info
     --------------------
     sticks:   dense  smooth     PW     G-vecs:    dense   smooth      PW
     Min         819     819    237                21799    21799    3367
     Max         820     820    238                21800    21800    3368
     Sum        1639    1639    475                43599    43599    6735
 
     Using Slab Decomposition
 


     bravais-lattice index     =            0
     lattice parameter (alat)  =       5.4385  a.u.
     unit-cell volume          =     113.7417 (a.u.)^3
     number of atoms/cell      =            2
     number of atomic types    =            2
     number of electrons       =         8.00
     number of Kohn-Sham states=            8
     kinetic-energy cutoff     =     200.0000  Ry
     charge density cutoff     =     800.0000  Ry
     scf convergence threshold =      1.0E-08
     mixing beta               =       0.2000
     number of iterations used =            8  local-TF  mixing
     Exchange-correlation= SLA  PW   PBX  PBC
                           (   1   4   3   4   0   0   0)

     celldm(1)=   5.438489  celldm(2)=   0.000000  celldm(3)=   0.000000
     celldm(4)=   0.000000  celldm(5)=   0.000000  celldm(6)=   0.000000

     crystal axes: (cart. coord. in units of alat)
               a(1) = (  -0.707107   0.000000   0.707107 )  
               a(2) = (   0.000000   0.707107   0.707107 )  
               a(3) = (  -0.707107   0.707107   0.000000 )  

     reciprocal axes: (cart. coord. in units 2 pi/alat)
               b(1) = ( -0.707107 -0.707107  0.707107 )  
               b(2) = (  0.707107  0.707107  0.707107 )  
               b(3) = ( -0.707107  0.707107 -0.707107 )  


     PseudoPot. # 1 for Al read from file:
     ../../pseudo/Al.pbe-n-kjpaw_psl.1.0.0.UPF
     MD5 check sum: 502b6b27b9c6270cab5dd1084b96fa6d
     Pseudo is Projector augmented-wave + core cor, Zval =  3.0
     Generated using &quot;atomic&quot; code by A. Dal Corso  v.6.3
     Shape of augmentation charge: PSQ
     Using radial grid of 1135 points,  6 beta functions with: 
                l(1) =   0
                l(2) =   0
                l(3) =   1
                l(4) =   1
                l(5) =   2
                l(6) =   2
     Q(r) pseudized with 0 coefficients 


     PseudoPot. # 2 for N  read from file:
     ../../pseudo/N.pbe-n-kjpaw_psl.1.0.0.UPF
     MD5 check sum: 14c48229446f9f2d411169a3abcbc3fa
     Pseudo is Projector augmented-wave + core cor, Zval =  5.0
     Generated using &quot;atomic&quot; code by A. Dal Corso  v.6.3
     Shape of augmentation charge: PSQ
     Using radial grid of 1085 points,  4 beta functions with: 
                l(1) =   0
                l(2) =   0
                l(3) =   1
                l(4) =   1
     Q(r) pseudized with 0 coefficients 


     atomic species   valence    mass     pseudopotential
        Al             3.00    26.98200     Al( 1.00)
        N              5.00    14.00700     N ( 1.00)

     48 Sym. Ops., with inversion, found



   Cartesian axes

     site n.     atom                  positions (alat units)
         1           Al  tau(   1) = (   0.0000000   0.0000000   0.0000000  )
         2           N   tau(   2) = (  -0.7071068   0.7071068   0.7071068  )

     number of k points=    47  Gaussian smearing, width (Ry)=  0.0050
                       cart. coord. in units 2pi/alat
        k(    1) = (   0.0000000   0.0000000   0.0000000), wk =   0.0020000
        k(    2) = (  -0.0707107   0.0707107  -0.0707107), wk =   0.0160000
        k(    3) = (  -0.1414214   0.1414214  -0.1414214), wk =   0.0160000
        k(    4) = (  -0.2121320   0.2121320  -0.2121320), wk =   0.0160000
        k(    5) = (  -0.2828427   0.2828427  -0.2828427), wk =   0.0160000
        k(    6) = (   0.3535534  -0.3535534   0.3535534), wk =   0.0080000
        k(    7) = (   0.0000000   0.1414214   0.0000000), wk =   0.0120000
        k(    8) = (  -0.0707107   0.2121320  -0.0707107), wk =   0.0480000
        k(    9) = (  -0.1414214   0.2828427  -0.1414214), wk =   0.0480000
        k(   10) = (  -0.2121320   0.3535534  -0.2121320), wk =   0.0480000
        k(   11) = (   0.4242641  -0.2828427   0.4242641), wk =   0.0480000
        k(   12) = (   0.3535534  -0.2121320   0.3535534), wk =   0.0480000
        k(   13) = (   0.2828427  -0.1414214   0.2828427), wk =   0.0480000
        k(   14) = (   0.2121320  -0.0707107   0.2121320), wk =   0.0480000
        k(   15) = (   0.1414214   0.0000000   0.1414214), wk =   0.0240000
        k(   16) = (   0.0000000   0.2828427   0.0000000), wk =   0.0120000
        k(   17) = (  -0.0707107   0.3535534  -0.0707107), wk =   0.0480000
        k(   18) = (  -0.1414214   0.4242641  -0.1414214), wk =   0.0480000
        k(   19) = (   0.4949747  -0.2121320   0.4949747), wk =   0.0480000
        k(   20) = (   0.4242641  -0.1414214   0.4242641), wk =   0.0480000
        k(   21) = (   0.3535534  -0.0707107   0.3535534), wk =   0.0480000
        k(   22) = (   0.2828427   0.0000000   0.2828427), wk =   0.0240000
        k(   23) = (  -0.0000000   0.4242641  -0.0000000), wk =   0.0120000
        k(   24) = (  -0.0707107   0.4949747  -0.0707107), wk =   0.0480000
        k(   25) = (   0.5656854  -0.1414214   0.5656854), wk =   0.0480000
        k(   26) = (   0.4949747  -0.0707107   0.4949747), wk =   0.0480000
        k(   27) = (   0.4242641  -0.0000000   0.4242641), wk =   0.0240000
        k(   28) = (   0.0000000   0.5656854   0.0000000), wk =   0.0120000
        k(   29) = (   0.6363961  -0.0707107   0.6363961), wk =   0.0480000
        k(   30) = (   0.5656854   0.0000000   0.5656854), wk =   0.0240000
        k(   31) = (   0.0000000  -0.7071068   0.0000000), wk =   0.0060000
        k(   32) = (  -0.1414214   0.2828427   0.0000000), wk =   0.0480000
        k(   33) = (  -0.2121320   0.3535534  -0.0707107), wk =   0.0960000
        k(   34) = (   0.4242641  -0.2828427   0.5656854), wk =   0.0960000
        k(   35) = (   0.3535534  -0.2121320   0.4949747), wk =   0.0480000
        k(   36) = (  -0.1414214   0.4242641  -0.0000000), wk =   0.0480000
        k(   37) = (   0.4949747  -0.2121320   0.6363961), wk =   0.0960000
        k(   38) = (   0.4242641  -0.1414214   0.5656854), wk =   0.0960000
        k(   39) = (   0.3535534  -0.0707107   0.4949747), wk =   0.0960000
        k(   40) = (   0.2828427   0.0000000   0.4242641), wk =   0.0480000
        k(   41) = (   0.5656854  -0.1414214   0.7071068), wk =   0.0480000
        k(   42) = (   0.4949747  -0.0707107   0.6363961), wk =   0.0960000
        k(   43) = (   0.4242641   0.0000000   0.5656854), wk =   0.0480000
        k(   44) = (  -0.1414214  -0.7071068   0.0000000), wk =   0.0240000
        k(   45) = (   0.4242641  -0.1414214   0.7071068), wk =   0.0480000
        k(   46) = (   0.3535534  -0.0707107   0.6363961), wk =   0.0480000
        k(   47) = (  -0.2828427  -0.7071068   0.0000000), wk =   0.0240000

     Dense  grid:    43599 G-vectors     FFT dimensions: (  50,  50,  50)

     Estimated max dynamical RAM per process >      61.44 MB

     Estimated total dynamical RAM >     235.11 MB

     Initial potential from superposition of free atoms

     starting charge       7.9977, renormalised to       8.0000
     Starting wfcs are    8 randomized atomic wfcs
     Checking if some PAW data can be deallocated... 

     total cpu time spent up to now is        0.6 secs

     Self-consistent Calculation

     iteration #  1     ecut=   200.00 Ry     beta= 0.20
     Davidson diagonalization with overlap
     ethr =  1.00E-02,  avg # of iterations =  4.1

     total cpu time spent up to now is        1.6 secs

     total energy              =     -67.96464200 Ry
     estimated scf accuracy    <       0.41898788 Ry

     iteration #  2     ecut=   200.00 Ry     beta= 0.20
     Davidson diagonalization with overlap
     ethr =  5.24E-03,  avg # of iterations =  1.1

     total cpu time spent up to now is        2.2 secs

     total energy              =     -67.86454294 Ry
     estimated scf accuracy    <       0.23098722 Ry

     iteration #  3     ecut=   200.00 Ry     beta= 0.20
     Davidson diagonalization with overlap
     ethr =  2.89E-03,  avg # of iterations =  1.8

     total cpu time spent up to now is        2.9 secs

     total energy              =     -67.90319229 Ry
     estimated scf accuracy    <       0.00699626 Ry

     iteration #  4     ecut=   200.00 Ry     beta= 0.20
     Davidson diagonalization with overlap
     ethr =  8.75E-05,  avg # of iterations =  2.2

     total cpu time spent up to now is        3.7 secs

     total energy              =     -67.90318563 Ry
     estimated scf accuracy    <       0.00172835 Ry

     iteration #  5     ecut=   200.00 Ry     beta= 0.20
     Davidson diagonalization with overlap
     ethr =  2.16E-05,  avg # of iterations =  1.8

     total cpu time spent up to now is        4.4 secs

     total energy              =     -67.90340746 Ry
     estimated scf accuracy    <       0.00000884 Ry

     iteration #  6     ecut=   200.00 Ry     beta= 0.20
     Davidson diagonalization with overlap
     ethr =  1.10E-07,  avg # of iterations =  3.4

     total cpu time spent up to now is        5.2 secs

     total energy              =     -67.90336803 Ry
     estimated scf accuracy    <       0.00010487 Ry

     iteration #  7     ecut=   200.00 Ry     beta= 0.20
     Davidson diagonalization with overlap
     ethr =  1.10E-07,  avg # of iterations =  2.6

     total cpu time spent up to now is        6.0 secs

     total energy              =     -67.90339072 Ry
     estimated scf accuracy    <       0.00000312 Ry

     iteration #  8     ecut=   200.00 Ry     beta= 0.20
     Davidson diagonalization with overlap
     ethr =  3.90E-08,  avg # of iterations =  2.0

     total cpu time spent up to now is        6.7 secs

     total energy              =     -67.90339145 Ry
     estimated scf accuracy    <       0.00000023 Ry

     iteration #  9     ecut=   200.00 Ry     beta= 0.20
     Davidson diagonalization with overlap
     ethr =  2.86E-09,  avg # of iterations =  1.5

     total cpu time spent up to now is        7.4 secs

     total energy              =     -67.90339143 Ry
     estimated scf accuracy    <       0.00000008 Ry

     iteration # 10     ecut=   200.00 Ry     beta= 0.20
     Davidson diagonalization with overlap
     ethr =  9.50E-10,  avg # of iterations =  1.0

     total cpu time spent up to now is        8.1 secs

     End of self-consistent calculation

          k = 0.0000 0.0000 0.0000 (  5521 PWs)   bands (ev):

    -6.4736  10.9188  10.9188  10.9188  16.3046  23.0315  23.0315  23.0315

          k =-0.0707 0.0707-0.0707 (  5450 PWs)   bands (ev):

    -6.2720   9.8992  10.7995  10.7995  16.9458  22.1314  23.3212  23.3212

          k =-0.1414 0.1414-0.1414 (  5423 PWs)   bands (ev):

    -5.6863   7.7764  10.5098  10.5098  17.6439  21.5787  23.4601  23.4601

          k =-0.2121 0.2121-0.2121 (  5417 PWs)   bands (ev):

    -4.7902   5.4812  10.1883  10.1883  17.4471  22.4306  22.7016  22.7016

          k =-0.2828 0.2828-0.2828 (  5429 PWs)   bands (ev):

    -3.7984   3.5596   9.9517   9.9517  17.0819  22.0321  22.0321  23.4968

          k = 0.3536-0.3536 0.3536 (  5444 PWs)   bands (ev):

    -3.2869   2.7252   9.8660   9.8660  16.9421  21.7928  21.7928  23.9077

          k = 0.0000 0.1414 0.0000 (  5445 PWs)   bands (ev):

    -6.2053   9.9730  10.5581  10.5581  17.2081  21.5090  23.6194  23.6194

          k =-0.0707 0.2121-0.0707 (  5425 PWs)   bands (ev):

    -5.7488   8.3976  10.1907  10.3185  18.0426  20.6665  23.1783  24.0678

          k =-0.1414 0.2828-0.1414 (  5440 PWs)   bands (ev):

    -4.9545   6.2622   9.8561   9.9185  18.1442  21.2867  21.8904  23.6696

          k =-0.2121 0.3536-0.2121 (  5439 PWs)   bands (ev):

    -3.9747   4.2532   9.4734   9.6634  17.8088  21.0653  22.7511  22.8740

          k = 0.4243-0.2828 0.4243 (  5429 PWs)   bands (ev):

    -3.2358   3.0124   9.1410   9.6614  17.6471  20.7649  22.3189  23.7464

          k = 0.3536-0.2121 0.3536 (  5437 PWs)   bands (ev):

    -3.4111   3.2934   9.0092   9.8479  17.7355  20.9939  22.1930  23.5766

          k = 0.2828-0.1414 0.2828 (  5428 PWs)   bands (ev):

    -4.3054   4.8822   9.1198  10.1729  18.0414  21.6951  22.4413  22.5583

          k = 0.2121-0.0707 0.2121 (  5422 PWs)   bands (ev):

    -5.2513   6.9709   9.4867  10.5349  18.3040  21.1817  22.7716  23.4165

          k = 0.1414 0.0000 0.1414 (  5425 PWs)   bands (ev):

    -5.9426   8.8679  10.1283  10.7879  17.7091  21.2776  23.5410  23.7434

          k = 0.0000 0.2828 0.0000 (  5397 PWs)   bands (ev):

    -5.4314   8.1117   9.7490   9.7490  18.5585  19.3313  22.2640  24.9474

          k =-0.0707 0.3536-0.0707 (  5431 PWs)   bands (ev):

    -4.7710   6.7185   9.2187   9.3669  18.4252  19.1674  21.6126  25.1478

          k =-0.1414 0.4243-0.1414 (  5442 PWs)   bands (ev):

    -3.8820   5.0563   8.4455   9.1607  17.9832  20.0570  21.5822  24.4716

          k = 0.4950-0.2121 0.4950 (  5430 PWs)   bands (ev):

    -3.0699   3.7591   7.7373   9.1799  17.9191  20.3275  22.6770  23.7023

          k = 0.4243-0.1414 0.4243 (  5410 PWs)   bands (ev):

    -2.9237   3.5714   7.3127   9.4195  18.3010  20.3681  23.2013  23.2057

          k = 0.3536-0.0707 0.3536 (  5418 PWs)   bands (ev):

    -3.5917   4.6250   7.3162   9.8192  19.0115  20.6567  22.1714  23.0813

          k = 0.2828 0.0000 0.2828 (  5422 PWs)   bands (ev):

    -4.5007   6.0033   8.0338  10.2527  19.3798  20.8582  21.5450  23.2880

          k =-0.0000 0.4243-0.0000 (  5433 PWs)   bands (ev):

    -4.2631   6.1471   8.9296   8.9296  17.5981  17.6419  22.4470  26.3351

          k =-0.0707 0.4950-0.0707 (  5446 PWs)   bands (ev):

    -3.5248   5.1357   8.1680   8.6761  16.9375  17.7962  22.9034  26.2910

          k = 0.5657-0.1414 0.5657 (  5428 PWs)   bands (ev):

    -2.7899   4.3668   6.8943   8.6652  16.7950  19.2636  23.0140  25.4944

          k = 0.4950-0.0707 0.4950 (  5429 PWs)   bands (ev):

    -2.4859   4.3004   5.8103   8.8997  17.2031  20.8505  22.9678  24.6237

          k = 0.4243-0.0000 0.4243 (  5416 PWs)   bands (ev):

    -2.8572   4.6661   5.7648   9.3263  18.1073  21.5345  22.1841  23.8300

          k = 0.0000 0.5657 0.0000 (  5458 PWs)   bands (ev):

    -2.9887   4.4403   8.3637   8.3637  15.9661  16.6044  23.9911  27.4157

          k = 0.6364-0.0707 0.6364 (  5441 PWs)   bands (ev):

    -2.4803   3.9739   7.5559   8.2967  15.8580  17.1036  24.2876  27.1271

          k = 0.5657 0.0000 0.5657 (  5430 PWs)   bands (ev):

    -2.2834   4.1985   6.1465   8.4887  16.2926  19.0071  23.9223  26.0227

          k = 0.0000-0.7071 0.0000 (  5434 PWs)   bands (ev):

    -2.3341   3.6524   8.1649   8.1649  15.3496  16.2559  24.7280  27.8526

          k =-0.1414 0.2828 0.0000 (  5438 PWs)   bands (ev):

    -5.1879   7.2775   9.1886  10.1797  18.8715  20.0096  21.9324  24.5645

          k =-0.2121 0.3536-0.0707 (  5434 PWs)   bands (ev):

    -4.3390   5.6238   8.4232   9.8266  18.9452  20.7845  20.9397  23.9137

          k = 0.4243-0.2828 0.5657 (  5437 PWs)   bands (ev):

    -3.4209   4.0118   8.0645   9.4597  18.7059  20.0459  22.4914  23.3565

          k = 0.3536-0.2121 0.4950 (  5442 PWs)   bands (ev):

    -2.9625   3.2926   7.9649   9.3072  18.6416  19.7556  23.0335  23.4046

          k =-0.1414 0.4243-0.0000 (  5444 PWs)   bands (ev):

    -4.0624   5.7615   8.2596   9.0864  18.3709  18.6752  21.6919  25.4202

          k = 0.4950-0.2121 0.6364 (  5430 PWs)   bands (ev):

    -3.2288   4.7083   7.3318   8.6967  18.1155  19.7153  21.6949  24.8838

          k = 0.4243-0.1414 0.5657 (  5436 PWs)   bands (ev):

    -2.6527   4.0295   6.6383   8.6190  18.2405  20.3505  22.4117  24.1549

          k = 0.3536-0.0707 0.4950 (  5432 PWs)   bands (ev):

    -2.7988   4.2768   6.3801   8.8978  18.8060  20.3615  22.2354  23.9250

          k = 0.2828 0.0000 0.4243 (  5426 PWs)   bands (ev):

    -3.5247   5.0351   6.9490   9.3869  19.7243  20.3174  20.7347  24.0608

          k = 0.5657-0.1414 0.7071 (  5423 PWs)   bands (ev):

    -2.8692   4.5014   7.6268   8.1173  16.8824  17.7932  23.3135  26.1226

          k = 0.4950-0.0707 0.6364 (  5424 PWs)   bands (ev):

    -2.3793   4.3554   6.3700   7.9879  17.1968  19.2737  23.2130  25.0358

          k = 0.4243 0.0000 0.5657 (  5430 PWs)   bands (ev):

    -2.3603   4.9944   5.1105   8.3223  17.8166  20.9047  22.6642  24.0284

          k =-0.1414-0.7071 0.0000 (  5446 PWs)   bands (ev):

    -2.2823   3.9266   7.4057   7.7348  16.3334  17.4902  24.2734  26.1732

          k = 0.4243-0.1414 0.7071 (  5436 PWs)   bands (ev):

    -2.5938   4.6617   6.2298   7.9698  18.7128  20.3277  21.3995  24.4584

          k = 0.3536-0.0707 0.6364 (  5438 PWs)   bands (ev):

    -2.3139   4.7785   5.6709   7.6376  18.8142  20.8606  21.8756  23.5314

          k =-0.2828-0.7071 0.0000 (  5440 PWs)   bands (ev):

    -2.1953   4.7303   5.9815   7.1449  18.3227  20.1520  22.7441  23.5332

     the Fermi energy is    12.9199 ev

!    total energy              =     -67.90339143 Ry
     total all-electron energy =      -595.344970 Ry
     estimated scf accuracy    <          7.6E-09 Ry
     smearing contrib. (-TS)   =      -0.00000000 Ry
     internal energy E=F+TS    =     -67.90339143 Ry

     The total energy is F=E-TS. E is the sum of the following terms:
     one-electron contribution =       3.32970749 Ry
     hartree contribution      =       4.56034827 Ry
     xc contribution           =      -8.64070480 Ry
     ewald contribution        =     -24.51862769 Ry
     one-center paw contrib.   =     -42.63411470 Ry

     convergence has been achieved in  10 iterations

     Forces acting on atoms (cartesian axes, Ry/au):

     atom    1 type  1   force =     0.00000000    0.00000000   -0.00000000
     atom    2 type  2   force =    -0.00000000   -0.00000000    0.00000000

     Total force =     0.000000     Total SCF correction =     0.000000


     Computing stress (Cartesian axis) and pressure

          total   stress  (Ry/bohr**3)                   (kbar)     P=        6.22
   0.00004229   0.00000000  -0.00000000            6.22        0.00       -0.00
   0.00000000   0.00004229  -0.00000000            0.00        6.22       -0.00
   0.00000000   0.00000000   0.00004229            0.00        0.00        6.22


     Writing all to output data dir ../output/AlN.save/
 
     init_run     :      0.49s CPU      0.51s WALL (       1 calls)
     electrons    :      7.17s CPU      7.44s WALL (       1 calls)
     forces       :      0.12s CPU      0.13s WALL (       1 calls)
     stress       :      0.51s CPU      0.53s WALL (       1 calls)

     Called by init_run:
     wfcinit      :      0.19s CPU      0.19s WALL (       1 calls)
     potinit      :      0.08s CPU      0.08s WALL (       1 calls)
     hinit0       :      0.18s CPU      0.18s WALL (       1 calls)

     Called by electrons:
     c_bands      :      4.84s CPU      4.92s WALL (      10 calls)
     sum_band     :      1.22s CPU      1.31s WALL (      10 calls)
     v_of_rho     :      0.20s CPU      0.20s WALL (      11 calls)
     newd         :      0.28s CPU      0.35s WALL (      11 calls)
     PAW_pot      :      0.52s CPU      0.52s WALL (      11 calls)
     mix_rho      :      0.19s CPU      0.22s WALL (      10 calls)

     Called by c_bands:
     init_us_2    :      0.26s CPU      0.27s WALL (     552 calls)
     init_us_2:cp :      0.26s CPU      0.27s WALL (     552 calls)
     cegterg      :      4.08s CPU      4.14s WALL (     240 calls)

     Called by *egterg:
     cdiaghg      :      0.06s CPU      0.07s WALL (     788 calls)
     h_psi        :      3.74s CPU      3.80s WALL (     812 calls)
     s_psi        :      0.09s CPU      0.09s WALL (     812 calls)
     g_psi        :      0.02s CPU      0.02s WALL (     548 calls)

     Called by h_psi:
     h_psi:calbec :      0.10s CPU      0.10s WALL (     812 calls)
     vloc_psi     :      3.53s CPU      3.58s WALL (     812 calls)
     add_vuspsi   :      0.08s CPU      0.09s WALL (     812 calls)

     General routines
     calbec       :      0.15s CPU      0.16s WALL (    1172 calls)
     fft          :      0.09s CPU      0.09s WALL (     146 calls)
     ffts         :      0.10s CPU      0.11s WALL (     177 calls)
     fftw         :      3.61s CPU      3.66s WALL (   11568 calls)
 
     Parallel routines
 
     PWSCF        :      8.48s CPU      8.89s WALL

 
   This run was terminated on:  11:35:33  28Apr2026            

=------------------------------------------------------------------------------=
   JOB DONE.
=------------------------------------------------------------------------------=
