
     Program PWSCF v.7.1 starts on 30Apr2026 at 22:59:51 

     This program is part of the open-source Quantum ESPRESSO suite
     for quantum simulation of materials; please cite
         "P. Giannozzi et al., J. Phys.:Condens. Matter 21 395502 (2009);
         "P. Giannozzi et al., J. Phys.:Condens. Matter 29 465901 (2017);
         "P. Giannozzi et al., J. Chem. Phys. 152 154105 (2020);
          URL http://www.quantum-espresso.org", 
     in publications or presentations arising from this work. More details at
     http://www.quantum-espresso.org/quote

     Parallel version (MPI & OpenMP), running on      96 processor cores
     Number of MPI processes:                96
     Threads/MPI process:                     1

     MPI processes distributed on     3 nodes
     82189 MiB available memory on the printing compute node when the environment starts
 
     Reading input from TiAlN_relax-2-2-2.in

     Current dimensions of program PWSCF are:
     Max number of different atomic species (ntypx) = 10
     Max number of k-points (npk) = 150000
     Max angular momentum in pseudopotentials (lmaxx) =  4

     File ../output/TiAlN.update deleted, as requested

     File ../output/TiAlN.bfgs deleted, as requested
     file Al.pbe-n-kjpaw_psl.1.0.0.UPF: wavefunction(s)  3S 3P renormalized
     file N.pbe-n-kjpaw_psl.1.0.0.UPF: wavefunction(s)  2S renormalized
     file Ti.pbe-spn-kjpaw_psl.1.0.0.UPF: wavefunction(s)  3S 3P 3D renormalized
 
     K-points division:     npool     =       4
     R & G space division:  proc/nbgrp/npool/nimage =      24
     Subspace diagonalization in iterative solution of the eigenvalue problem:
     one sub-group per band group will be used
     scalapack distributed-memory algorithm (size of sub-group:  4*  4 procs)

 
     Parallelization info
     --------------------
     sticks:   dense  smooth     PW     G-vecs:    dense   smooth      PW
     Min        1474    1474    377               183059   183059   23757
     Max        1475    1475    378               183062   183062   23759
     Sum       35395   35395   9061              4393453  4393453  570185
 
     Using Slab Decomposition
 


     bravais-lattice index     =            0
     lattice parameter (alat)  =      22.6626  a.u.
     unit-cell volume          =    8230.2713 (a.u.)^3
     number of atoms/cell      =          128
     number of atomic types    =            3
     number of electrons       =       800.00
     number of Kohn-Sham states=          480
     kinetic-energy cutoff     =     250.0000  Ry
     charge density cutoff     =    1000.0000  Ry
     scf convergence threshold =      1.0E-06
     mixing beta               =       0.2000
     number of iterations used =            8  local-TF  mixing
     energy convergence thresh.=      1.0E-05
     force convergence thresh. =      1.0E-04
     press convergence thresh. =      5.0E-01
     Exchange-correlation= SLA  PW   PBX  PBC
                           (   1   4   3   4   0   0   0)
     nstep                     =           50


     celldm(1)=  22.662599  celldm(2)=   0.000000  celldm(3)=   0.000000
     celldm(4)=   0.000000  celldm(5)=   0.000000  celldm(6)=   0.000000

     crystal axes: (cart. coord. in units of alat)
               a(1) = (   1.000000   0.000000   0.000000 )  
               a(2) = (   0.500000   0.866025   0.000000 )  
               a(3) = (   0.500000   0.288675   0.816497 )  

     reciprocal axes: (cart. coord. in units 2 pi/alat)
               b(1) = (  1.000000 -0.577350 -0.408248 )  
               b(2) = (  0.000000  1.154701 -0.408248 )  
               b(3) = (  0.000000  0.000000  1.224745 )  


     PseudoPot. # 1 for Al read from file:
     ../../pseudo/Al.pbe-n-kjpaw_psl.1.0.0.UPF
     MD5 check sum: 502b6b27b9c6270cab5dd1084b96fa6d
     Pseudo is Projector augmented-wave + core cor, Zval =  3.0
     Generated using &quot;atomic&quot; code by A. Dal Corso  v.6.3
     Shape of augmentation charge: PSQ
     Using radial grid of 1135 points,  6 beta functions with: 
                l(1) =   0
                l(2) =   0
                l(3) =   1
                l(4) =   1
                l(5) =   2
                l(6) =   2
     Q(r) pseudized with 0 coefficients 


     PseudoPot. # 2 for N  read from file:
     ../../pseudo/N.pbe-n-kjpaw_psl.1.0.0.UPF
     MD5 check sum: 14c48229446f9f2d411169a3abcbc3fa
     Pseudo is Projector augmented-wave + core cor, Zval =  5.0
     Generated using &quot;atomic&quot; code by A. Dal Corso  v.6.3
     Shape of augmentation charge: PSQ
     Using radial grid of 1085 points,  4 beta functions with: 
                l(1) =   0
                l(2) =   0
                l(3) =   1
                l(4) =   1
     Q(r) pseudized with 0 coefficients 


     PseudoPot. # 3 for Ti read from file:
     ../../pseudo/Ti.pbe-spn-kjpaw_psl.1.0.0.UPF
     MD5 check sum: 01f69b0d8ba4438b2e03ac6ea4af1c0b
     Pseudo is Projector augmented-wave + core cor, Zval = 12.0
     Generated using &quot;atomic&quot; code by A. Dal Corso  v.6.2.2
     Shape of augmentation charge: PSQ
     Using radial grid of 1177 points,  6 beta functions with: 
                l(1) =   0
                l(2) =   0
                l(3) =   1
                l(4) =   1
                l(5) =   2
                l(6) =   2
     Q(r) pseudized with 0 coefficients 


     atomic species   valence    mass     pseudopotential
        Al             3.00    26.98200     Al( 1.00)
        N              5.00    14.00700     N ( 1.00)
        Ti            12.00    47.86700     Ti( 1.00)

     No symmetry found



   Cartesian axes

     site n.     atom                  positions (alat units)
         1           Ti  tau(   1) = (   0.0000000   0.0000000   0.0000000  )
         2           N   tau(   2) = (   1.0000000   0.1443376   0.1020621  )
         3           Ti  tau(   3) = (   0.1250000   0.0721688   0.2041241  )
         4           N   tau(   4) = (   1.1250000   0.2165064   0.3061862  )
         5           Al  tau(   5) = (   0.2500000   0.1443376   0.4082483  )
         6           N   tau(   6) = (   1.2500000   0.2886751   0.5103104  )
         7           Ti  tau(   7) = (   0.3750000   0.2165064   0.6123724  )
         8           N   tau(   8) = (   1.3750000   0.3608439   0.7144345  )
         9           Ti  tau(   9) = (   0.1250000   0.2165064   0.0000000  )
        10           N   tau(  10) = (   1.1250000   0.3608439   0.1020621  )
        11           Ti  tau(  11) = (   0.2500000   0.2886751   0.2041241  )
        12           N   tau(  12) = (   1.2500000   0.4330127   0.3061862  )
        13           Al  tau(  13) = (   0.3750000   0.3608439   0.4082483  )
        14           N   tau(  14) = (   1.3750000   0.5051815   0.5103104  )
        15           Ti  tau(  15) = (   0.5000000   0.4330127   0.6123724  )
        16           N   tau(  16) = (   1.5000000   0.5773503   0.7144345  )
        17           Ti  tau(  17) = (   0.2500000   0.4330127   0.0000000  )
        18           N   tau(  18) = (   1.2500000   0.5773503   0.1020621  )
        19           Ti  tau(  19) = (   0.3750000   0.5051815   0.2041241  )
        20           N   tau(  20) = (   1.3750000   0.6495191   0.3061862  )
        21           Ti  tau(  21) = (   0.5000000   0.5773503   0.4082483  )
        22           N   tau(  22) = (   1.5000000   0.7216878   0.5103104  )
        23           Al  tau(  23) = (   1.6250000   0.6495191   0.6123724  )
        24           N   tau(  24) = (   1.6250000   0.7938566   0.7144345  )
        25           Al  tau(  25) = (   0.3750000   0.6495191   0.0000000  )
        26           N   tau(  26) = (   1.3750000   0.7938566   0.1020621  )
        27           Ti  tau(  27) = (   0.5000000   0.7216878   0.2041241  )
        28           N   tau(  28) = (   1.5000000   0.8660254   0.3061862  )
        29           Ti  tau(  29) = (   0.6250000   0.7938566   0.4082483  )
        30           N   tau(  30) = (   1.6250000   0.9381942   0.5103104  )
        31           Al  tau(  31) = (   1.7500000   0.8660254   0.6123724  )
        32           N   tau(  32) = (   1.7500000   1.0103630   0.7144345  )
        33           Ti  tau(  33) = (   0.2500000   0.0000000   0.0000000  )
        34           N   tau(  34) = (   0.2500000   0.1443376   0.1020621  )
        35           Ti  tau(  35) = (   0.3750000   0.0721688   0.2041241  )
        36           N   tau(  36) = (   0.3750000   0.2165064   0.3061862  )
        37           Al  tau(  37) = (   0.5000000   0.1443376   0.4082483  )
        38           N   tau(  38) = (   0.5000000   0.2886751   0.5103104  )
        39           Ti  tau(  39) = (   0.6250000   0.2165064   0.6123724  )
        40           N   tau(  40) = (   0.6250000   0.3608439   0.7144345  )
        41           Ti  tau(  41) = (   0.3750000   0.2165064   0.0000000  )
        42           N   tau(  42) = (   0.3750000   0.3608439   0.1020621  )
        43           Ti  tau(  43) = (   0.5000000   0.2886751   0.2041241  )
        44           N   tau(  44) = (   0.5000000   0.4330127   0.3061862  )
        45           Al  tau(  45) = (   0.6250000   0.3608439   0.4082483  )
        46           N   tau(  46) = (   0.6250000   0.5051815   0.5103104  )
        47           Ti  tau(  47) = (   0.7500000   0.4330127   0.6123724  )
        48           N   tau(  48) = (   0.7500000   0.5773503   0.7144345  )
        49           Al  tau(  49) = (   0.5000000   0.4330127   0.0000000  )
        50           N   tau(  50) = (   0.5000000   0.5773503   0.1020621  )
        51           Ti  tau(  51) = (   0.6250000   0.5051815   0.2041241  )
        52           N   tau(  52) = (   0.6250000   0.6495191   0.3061862  )
        53           Al  tau(  53) = (   0.7500000   0.5773503   0.4082483  )
        54           N   tau(  54) = (   0.7500000   0.7216878   0.5103104  )
        55           Ti  tau(  55) = (   0.8750000   0.6495191   0.6123724  )
        56           N   tau(  56) = (   0.8750000   0.7938566   0.7144345  )
        57           Al  tau(  57) = (   0.6250000   0.6495191   0.0000000  )
        58           N   tau(  58) = (   0.6250000   0.7938566   0.1020621  )
        59           Ti  tau(  59) = (   0.7500000   0.7216878   0.2041241  )
        60           N   tau(  60) = (   0.7500000   0.8660254   0.3061862  )
        61           Ti  tau(  61) = (   0.8750000   0.7938566   0.4082483  )
        62           N   tau(  62) = (   0.8750000   0.9381942   0.5103104  )
        63           Al  tau(  63) = (   1.0000000   0.8660254   0.6123724  )
        64           N   tau(  64) = (   1.0000000   1.0103630   0.7144345  )
        65           Al  tau(  65) = (   0.5000000   0.0000000   0.0000000  )
        66           N   tau(  66) = (   0.5000000   0.1443376   0.1020621  )
        67           Al  tau(  67) = (   0.6250000   0.0721688   0.2041241  )
        68           N   tau(  68) = (   0.6250000   0.2165064   0.3061862  )
        69           Al  tau(  69) = (   0.7500000   0.1443376   0.4082483  )
        70           N   tau(  70) = (   0.7500000   0.2886751   0.5103104  )
        71           Al  tau(  71) = (   0.8750000   0.2165064   0.6123724  )
        72           N   tau(  72) = (   0.8750000   0.3608439   0.7144345  )
        73           Ti  tau(  73) = (   0.6250000   0.2165064   0.0000000  )
        74           N   tau(  74) = (   0.6250000   0.3608439   0.1020621  )
        75           Ti  tau(  75) = (   0.7500000   0.2886751   0.2041241  )
        76           N   tau(  76) = (   0.7500000   0.4330127   0.3061862  )
        77           Ti  tau(  77) = (   0.8750000   0.3608439   0.4082483  )
        78           N   tau(  78) = (   0.8750000   0.5051815   0.5103104  )
        79           Al  tau(  79) = (   1.0000000   0.4330127   0.6123724  )
        80           N   tau(  80) = (   1.0000000   0.5773503   0.7144345  )
        81           Al  tau(  81) = (   0.7500000   0.4330127   0.0000000  )
        82           N   tau(  82) = (   0.7500000   0.5773503   0.1020621  )
        83           Al  tau(  83) = (   0.8750000   0.5051815   0.2041241  )
        84           N   tau(  84) = (   0.8750000   0.6495191   0.3061862  )
        85           Al  tau(  85) = (   1.0000000   0.5773503   0.4082483  )
        86           N   tau(  86) = (   1.0000000   0.7216878   0.5103104  )
        87           Ti  tau(  87) = (   1.1250000   0.6495191   0.6123724  )
        88           N   tau(  88) = (   1.1250000   0.7938566   0.7144345  )
        89           Al  tau(  89) = (   0.8750000   0.6495191   0.0000000  )
        90           N   tau(  90) = (   0.8750000   0.7938566   0.1020621  )
        91           Al  tau(  91) = (   1.0000000   0.7216878   0.2041241  )
        92           N   tau(  92) = (   1.0000000   0.8660254   0.3061862  )
        93           Ti  tau(  93) = (   1.1250000   0.7938566   0.4082483  )
        94           N   tau(  94) = (   1.1250000   0.9381942   0.5103104  )
        95           Al  tau(  95) = (   1.2500000   0.8660254   0.6123724  )
        96           N   tau(  96) = (   1.2500000   1.0103630   0.7144345  )
        97           Al  tau(  97) = (   0.7500000   0.0000000   0.0000000  )
        98           N   tau(  98) = (   0.7500000   0.1443376   0.1020621  )
        99           Al  tau(  99) = (   0.8750000   0.0721688   0.2041241  )
       100           N   tau( 100) = (   0.8750000   0.2165064   0.3061862  )
       101           Al  tau( 101) = (   1.0000000   0.1443376   0.4082483  )
       102           N   tau( 102) = (   1.0000000   0.2886751   0.5103104  )
       103           Ti  tau( 103) = (   1.6250000   1.0825318   0.6123724  )
       104           N   tau( 104) = (   1.1250000   0.3608439   0.7144345  )
       105           Al  tau( 105) = (   0.8750000   0.2165064   0.0000000  )
       106           N   tau( 106) = (   0.8750000   0.3608439   0.1020621  )
       107           Ti  tau( 107) = (   1.0000000   0.2886751   0.2041241  )
       108           N   tau( 108) = (   1.0000000   0.4330127   0.3061862  )
       109           Ti  tau( 109) = (   1.1250000   0.3608439   0.4082483  )
       110           N   tau( 110) = (   1.1250000   0.5051815   0.5103104  )
       111           Ti  tau( 111) = (   1.2500000   0.4330127   0.6123724  )
       112           N   tau( 112) = (   1.2500000   0.5773503   0.7144345  )
       113           Ti  tau( 113) = (   1.0000000   0.4330127   0.0000000  )
       114           N   tau( 114) = (   1.0000000   0.5773503   0.1020621  )
       115           Al  tau( 115) = (   1.1250000   0.5051815   0.2041241  )
       116           N   tau( 116) = (   1.1250000   0.6495191   0.3061862  )
       117           Al  tau( 117) = (   1.2500000   0.5773503   0.4082483  )
       118           N   tau( 118) = (   1.2500000   0.7216878   0.5103104  )
       119           Al  tau( 119) = (   1.3750000   0.6495191   0.6123724  )
       120           N   tau( 120) = (   1.3750000   0.7938566   0.7144345  )
       121           Al  tau( 121) = (   1.1250000   0.6495191   0.0000000  )
       122           N   tau( 122) = (   1.1250000   0.7938566   0.1020621  )
       123           Ti  tau( 123) = (   1.2500000   0.7216878   0.2041241  )
       124           N   tau( 124) = (   1.2500000   0.8660254   0.3061862  )
       125           Al  tau( 125) = (   1.3750000   0.7938566   0.4082483  )
       126           N   tau( 126) = (   1.3750000   0.9381942   0.5103104  )
       127           Al  tau( 127) = (   1.5000000   0.8660254   0.6123724  )
       128           N   tau( 128) = (   1.5000000   1.0103630   0.7144345  )

     number of k points=     8  Gaussian smearing, width (Ry)=  0.0050
                       cart. coord. in units 2pi/alat
        k(    1) = (   0.0000000   0.0000000   0.0000000), wk =   0.2500000
        k(    2) = (   0.0000000   0.0000000  -0.6123724), wk =   0.2500000
        k(    3) = (   0.0000000  -0.5773503   0.2041241), wk =   0.2500000
        k(    4) = (   0.0000000  -0.5773503  -0.4082483), wk =   0.2500000
        k(    5) = (   0.5000000   0.2886751   0.2041241), wk =   0.2500000
        k(    6) = (  -0.5000000   0.2886751   0.2041241), wk =   0.2500000
        k(    7) = (   0.5000000   0.2886751  -0.4082483), wk =   0.2500000
        k(    8) = (  -0.5000000   0.2886751  -0.4082483), wk =   0.2500000

     Dense  grid:  4393453 G-vectors     FFT dimensions: ( 240, 240, 240)

     Estimated max dynamical RAM per process >       2.19 GB

     Estimated total dynamical RAM >     207.51 GB

     Initial potential from superposition of free atoms

     starting charge     799.8789, renormalised to     800.0000
     Starting wfcs are  704 randomized atomic wfcs
     Checking if some PAW data can be deallocated... 

     total cpu time spent up to now is       84.4 secs

     Self-consistent Calculation

     iteration #  1     ecut=   250.00 Ry     beta= 0.20
     Davidson diagonalization with overlap
     ethr =  1.00E-02,  avg # of iterations =  2.0

     total cpu time spent up to now is      244.3 secs

     total energy              =   -8964.77880413 Ry
     estimated scf accuracy    <      36.39171291 Ry

     iteration #  2     ecut=   250.00 Ry     beta= 0.20
     Davidson diagonalization with overlap
     ethr =  4.55E-03,  avg # of iterations =  1.0

     total cpu time spent up to now is      375.2 secs

     total energy              =   -8956.30554097 Ry
     estimated scf accuracy    <      20.32986536 Ry

     iteration #  3     ecut=   250.00 Ry     beta= 0.20
     Davidson diagonalization with overlap
     ethr =  2.54E-03,  avg # of iterations =  2.9

     total cpu time spent up to now is      549.3 secs

     total energy              =   -8960.89239199 Ry
     estimated scf accuracy    <       1.04711915 Ry

     iteration #  4     ecut=   250.00 Ry     beta= 0.20
     Davidson diagonalization with overlap
     ethr =  1.31E-04,  avg # of iterations =  7.6

     total cpu time spent up to now is      746.7 secs

     total energy              =   -8961.09708986 Ry
     estimated scf accuracy    <       1.01404759 Ry

     iteration #  5     ecut=   250.00 Ry     beta= 0.20
     Davidson diagonalization with overlap
     ethr =  1.27E-04,  avg # of iterations =  1.0

     total cpu time spent up to now is      877.9 secs

     total energy              =   -8960.85759290 Ry
     estimated scf accuracy    <       0.73732758 Ry

     iteration #  6     ecut=   250.00 Ry     beta= 0.20
     Davidson diagonalization with overlap
     ethr =  9.22E-05,  avg # of iterations =  2.0

     total cpu time spent up to now is     1038.5 secs

     total energy              =   -8960.94256581 Ry
     estimated scf accuracy    <       0.13449197 Ry

     iteration #  7     ecut=   250.00 Ry     beta= 0.20
     Davidson diagonalization with overlap
     ethr =  1.68E-05,  avg # of iterations =  2.0

     total cpu time spent up to now is     1189.6 secs

     total energy              =   -8960.93225838 Ry
     estimated scf accuracy    <       0.05572452 Ry

     iteration #  8     ecut=   250.00 Ry     beta= 0.20
     Davidson diagonalization with overlap
     ethr =  6.97E-06,  avg # of iterations =  3.0

     total cpu time spent up to now is     1397.4 secs

     total energy              =   -8960.93735920 Ry
     estimated scf accuracy    <       0.09013217 Ry

     iteration #  9     ecut=   250.00 Ry     beta= 0.20
     Davidson diagonalization with overlap
     ethr =  6.97E-06,  avg # of iterations =  2.1

     total cpu time spent up to now is     1547.2 secs

     total energy              =   -8960.93871045 Ry
     estimated scf accuracy    <       0.01446056 Ry

     iteration # 10     ecut=   250.00 Ry     beta= 0.20
     Davidson diagonalization with overlap
     ethr =  1.81E-06,  avg # of iterations = 14.2

     total cpu time spent up to now is     1773.8 secs

     total energy              =   -8960.94210243 Ry
     estimated scf accuracy    <       0.00332786 Ry

     iteration # 11     ecut=   250.00 Ry     beta= 0.20
     Davidson diagonalization with overlap
     ethr =  4.16E-07,  avg # of iterations =  2.0

     total cpu time spent up to now is     1928.0 secs

     total energy              =   -8960.94220359 Ry
     estimated scf accuracy    <       0.00068940 Ry

     iteration # 12     ecut=   250.00 Ry     beta= 0.20
     Davidson diagonalization with overlap
     ethr =  8.62E-08,  avg # of iterations =  5.9

     total cpu time spent up to now is     2122.9 secs

     total energy              =   -8960.94231562 Ry
     estimated scf accuracy    <       0.00049450 Ry

     iteration # 13     ecut=   250.00 Ry     beta= 0.20
     Davidson diagonalization with overlap
     ethr =  6.18E-08,  avg # of iterations =  2.0

     total cpu time spent up to now is     2265.5 secs

     total energy              =   -8960.94229451 Ry
     estimated scf accuracy    <       0.00013627 Ry

     iteration # 14     ecut=   250.00 Ry     beta= 0.20
     Davidson diagonalization with overlap
     ethr =  1.70E-08,  avg # of iterations =  4.4

     total cpu time spent up to now is     2440.1 secs

     total energy              =   -8960.94231831 Ry
     estimated scf accuracy    <       0.00003466 Ry

     iteration # 15     ecut=   250.00 Ry     beta= 0.20
     Davidson diagonalization with overlap
     ethr =  4.33E-09,  avg # of iterations =  2.5

     total cpu time spent up to now is     2586.7 secs

     total energy              =   -8960.94231616 Ry
     estimated scf accuracy    <       0.00001502 Ry

     iteration # 16     ecut=   250.00 Ry     beta= 0.20
     Davidson diagonalization with overlap
     ethr =  1.88E-09,  avg # of iterations =  4.6

     total cpu time spent up to now is     2757.9 secs

     total energy              =   -8960.94231742 Ry
     estimated scf accuracy    <       0.00000541 Ry

     iteration # 17     ecut=   250.00 Ry     beta= 0.20
     Davidson diagonalization with overlap
     ethr =  6.76E-10,  avg # of iterations =  6.0

     total cpu time spent up to now is     2916.3 secs

     total energy              =   -8960.94231655 Ry
     estimated scf accuracy    <       0.00000309 Ry

     iteration # 18     ecut=   250.00 Ry     beta= 0.20
     Davidson diagonalization with overlap
     ethr =  3.86E-10,  avg # of iterations =  5.0

     total cpu time spent up to now is     3090.1 secs

     End of self-consistent calculation

          k = 0.0000 0.0000 0.0000 (549321 PWs)   bands (ev):

   -43.6949 -43.5727 -43.5379 -43.5355 -43.5121 -43.5002 -43.4800 -43.4608
   -43.4573 -43.4477 -43.4416 -43.4373 -43.4341 -43.4243 -43.4214 -43.4081
   -43.4035 -43.3975 -43.3918 -43.3915 -43.3762 -43.3696 -43.3644 -43.3599
   -43.3559 -43.3491 -43.3381 -43.3228 -43.3184 -43.3011 -43.2875 -43.2562
   -20.1245 -20.0185 -20.0113 -20.0068 -20.0038 -19.9979 -19.9914 -19.9802
   -19.9717 -19.9567 -19.9485 -19.9402 -19.9362 -19.9342 -19.9288 -19.9213
   -19.9149 -19.9118 -19.9024 -19.8970 -19.8959 -19.8889 -19.8839 -19.8767
   -19.8670 -19.8656 -19.8613 -19.8599 -19.8477 -19.8406 -19.8355 -19.8341
   -19.8305 -19.8265 -19.8220 -19.8114 -19.8087 -19.8037 -19.7938 -19.7876
   -19.7824 -19.7744 -19.7673 -19.7630 -19.7610 -19.7549 -19.7544 -19.7449
   -19.7376 -19.7279 -19.7245 -19.7242 -19.7169 -19.7145 -19.7075 -19.7031
   -19.6962 -19.6907 -19.6880 -19.6844 -19.6787 -19.6770 -19.6728 -19.6691
   -19.6647 -19.6529 -19.6519 -19.6430 -19.6374 -19.6303 -19.6283 -19.6219
   -19.6186 -19.6093 -19.6078 -19.6022 -19.5977 -19.5928 -19.5863 -19.5808
   -19.5755 -19.5725 -19.5647 -19.5613 -19.5580 -19.5547 -19.5480 -19.5466
   -19.5410 -19.5293 -19.5259 -19.5185 -19.5037 -19.4988 -19.4774 -19.4611
    -3.6447  -2.7723  -2.7232  -2.6779  -2.6348  -2.5952  -2.5288  -2.4727
    -2.3829  -2.3681  -2.2599  -2.2086  -2.1489  -2.0836  -1.9756  -1.5055
    -1.4925  -1.4698  -1.4385  -1.4209  -1.3961  -1.3763  -1.3498  -1.3142
    -1.2795  -1.2593  -1.2380  -1.2177  -1.1954  -1.1818  -1.1573  -1.1492
    -1.1255  -1.1156  -1.1001  -1.0835  -1.0740  -1.0455  -1.0328  -1.0130
    -1.0015  -0.9871  -0.9675  -0.9533  -0.9305  -0.9129  -0.9036  -0.8752
    -0.8686  -0.8608  -0.8440  -0.8150  -0.8029  -0.7716  -0.7416  -0.7281
    -0.7021  -0.6958  -0.6377  -0.6361  -0.6213  -0.6003  -0.5697  -0.5591
     4.8082   4.9451   5.2517   5.3661   5.9020   5.9542   5.9654   6.0249
     6.0772   6.0821   6.1170   6.1895   6.2030   6.2472   6.3384   6.3800
     6.4174   6.4690   6.4862   6.5508   6.5562   6.5987   6.6337   6.6769
     6.7080   6.7878   6.8281   6.8972   6.9647   6.9863   7.0199   7.0812
     7.1413   7.1693   7.2145   7.2870   7.3283   7.3688   7.4112   7.4418
     7.5020   7.5654   7.6326   7.6474   7.6843   7.7257   7.7418   7.7814
     7.8540   7.8979   7.9337   7.9692   7.9919   8.0360   8.0748   8.0777
     8.1011   8.1269   8.1827   8.2230   8.2841   8.3334   8.3462   8.3631
     8.3824   8.3979   8.4258   8.4564   8.4744   8.5327   8.5378   8.5523
     8.5670   8.5866   8.6287   8.6675   8.6846   8.6998   8.7080   8.7359
     8.7728   8.8022   8.8247   8.8689   8.8708   8.9220   8.9411   8.9577
     8.9774   9.0037   9.0141   9.0413   9.0528   9.0712   9.0838   9.1110
     9.1444   9.1632   9.1732   9.1999   9.2199   9.2330   9.2637   9.2947
     9.3187   9.3355   9.3576   9.3695   9.4165   9.4210   9.4446   9.4596
     9.4786   9.5022   9.5460   9.5665   9.5764   9.6683   9.7010   9.7247
     9.7513   9.7588   9.8068   9.8219   9.8663   9.8844   9.9183   9.9696
    10.0049  10.0415  10.0692  10.0744  10.0889  10.1115  10.1440  10.1752
    10.2303  10.2338  10.2486  10.2557  10.3075  10.3422  10.3636  10.3748
    10.4009  10.4229  10.4464  10.4731  10.4887  10.5303  10.5383  10.5697
    10.6043  10.6301  10.6490  10.6538  10.6843  10.7020  10.7289  10.7644
    10.8012  10.8402  10.8575  10.8981  10.9109  10.9299  10.9373  10.9849
    10.9949  11.0035  11.0192  11.0400  11.0605  11.0802  11.0974  11.1113
    11.1228  11.1433  11.1668  11.1807  11.2123  11.2391  11.2480  11.2535
    11.3045  11.3121  11.3347  11.3594  11.3678  12.2589  12.2604  12.2762
    12.6401  12.6876  12.7178  13.3866  13.4263  13.5553  13.5760  13.5964
    13.8664  14.1909  14.3324  14.3507  14.3763  14.4206  14.4580  14.4866
    14.5418  14.5645  14.5913  14.6318  14.6572  14.7189  14.7260  14.7685
    14.8031  14.8297  14.8364  14.8711  14.9007  14.9111  14.9535  15.0161
    15.0252  15.0523  15.0850  15.1268  15.1868  15.2366  15.2995  15.3303
    15.3502  15.3572  15.4003  15.4085  15.4310  15.4458  15.4742  15.5125
    15.5257  15.5508  15.5916  15.6281  15.6705  15.6722  15.7083  15.7186
    15.7651  15.7834  15.7848  15.8437  15.8871  15.8942  15.9187  15.9482
    15.9664  15.9913  16.0358  16.0486  16.0625  16.0787  16.1021  16.1215
    16.1441  16.1513  16.1647  16.1930  16.2075  16.2336  16.2414  16.2456
    16.2631  16.2781  16.2798  16.2959  16.3123  16.3134  16.3241  16.3457
    16.3646  16.3806  16.3932  16.4073  16.4364  16.4630  16.4817  16.5095

          k = 0.0000 0.0000-0.6124 (549100 PWs)   bands (ev):

   -43.6949 -43.5727 -43.5379 -43.5355 -43.5120 -43.5002 -43.4799 -43.4614
   -43.4573 -43.4460 -43.4426 -43.4371 -43.4345 -43.4239 -43.4216 -43.4085
   -43.4034 -43.3987 -43.3916 -43.3894 -43.3770 -43.3690 -43.3645 -43.3605
   -43.3558 -43.3491 -43.3380 -43.3237 -43.3172 -43.3017 -43.2873 -43.2562
   -20.1244 -20.0169 -20.0070 -20.0031 -19.9978 -19.9934 -19.9893 -19.9767
   -19.9701 -19.9590 -19.9530 -19.9424 -19.9362 -19.9320 -19.9248 -19.9188
   -19.9158 -19.9100 -19.9044 -19.8975 -19.8945 -19.8943 -19.8907 -19.8861
   -19.8772 -19.8672 -19.8649 -19.8595 -19.8563 -19.8512 -19.8371 -19.8335
   -19.8286 -19.8246 -19.8184 -19.8178 -19.8151 -19.8025 -19.7996 -19.7906
   -19.7872 -19.7758 -19.7737 -19.7640 -19.7609 -19.7493 -19.7420 -19.7418
   -19.7361 -19.7353 -19.7293 -19.7206 -19.7151 -19.7104 -19.7018 -19.6981
   -19.6966 -19.6883 -19.6838 -19.6815 -19.6755 -19.6707 -19.6674 -19.6624
   -19.6576 -19.6554 -19.6467 -19.6435 -19.6313 -19.6285 -19.6254 -19.6185
   -19.6104 -19.6081 -19.6018 -19.5996 -19.5981 -19.5919 -19.5888 -19.5819
   -19.5809 -19.5760 -19.5733 -19.5646 -19.5616 -19.5601 -19.5525 -19.5470
   -19.5393 -19.5302 -19.5283 -19.5183 -19.5075 -19.5018 -19.4780 -19.4613
    -3.4215  -3.3185  -2.8278  -2.7682  -2.6707  -2.5970  -2.5096  -2.4146
    -2.1637  -2.0960  -2.0526  -2.0326  -1.9684  -1.9375  -1.7620  -1.7200
    -1.6607  -1.6321  -1.6187  -1.5380  -1.4603  -1.4300  -1.4223  -1.3841
    -1.3332  -1.3074  -1.2820  -1.2505  -1.2344  -1.2170  -1.1873  -1.1691
    -1.1339  -1.1296  -1.1038  -1.0887  -1.0494  -1.0470  -1.0134  -1.0028
    -0.9845  -0.9800  -0.9445  -0.9271  -0.9209  -0.8986  -0.8748  -0.8617
    -0.8411  -0.8289  -0.7920  -0.7865  -0.7630  -0.7602  -0.7325  -0.7042
    -0.6966  -0.6597  -0.6533  -0.6482  -0.6099  -0.6033  -0.5634  -0.5166
     5.0331   5.2925   5.3573   5.5019   5.5583   5.6994   5.8891   5.9291
     5.9608   6.0178   6.0784   6.1335   6.2450   6.2904   6.3774   6.3950
     6.4331   6.5277   6.5688   6.5755   6.6051   6.6629   6.7293   6.7446
     6.7478   6.8116   6.8576   6.8749   6.9139   6.9384   6.9847   7.0186
     7.0536   7.0836   7.1402   7.2050   7.2435   7.2707   7.2898   7.3320
     7.3910   7.4205   7.4801   7.5300   7.5795   7.6396   7.6746   7.7163
     7.7314   7.7808   7.7877   7.8589   7.8625   7.9843   8.0185   8.0403
     8.0897   8.0949   8.1267   8.2207   8.2279   8.2496   8.2539   8.3049
     8.3642   8.3856   8.4498   8.4692   8.4747   8.5159   8.5408   8.5584
     8.5965   8.6469   8.7070   8.7304   8.7838   8.8334   8.8694   8.9014
     8.9283   8.9340   8.9561   8.9944   9.0151   9.0268   9.0891   9.1026
     9.1396   9.1582   9.1941   9.2003   9.2084   9.2254   9.2656   9.2859
     9.3092   9.3230   9.3360   9.3472   9.3893   9.4053   9.4398   9.4416
     9.4674   9.4814   9.4930   9.5271   9.5406   9.5736   9.5761   9.5998
     9.6224   9.6655   9.6787   9.7098   9.7284   9.7375   9.7552   9.7695
     9.7721   9.8124   9.8250   9.8558   9.8621   9.9117   9.9254   9.9352
     9.9648   9.9819   9.9852   9.9968  10.0365  10.0744  10.0994  10.1034
    10.1485  10.1676  10.1776  10.1918  10.2320  10.2444  10.2607  10.2711
    10.3143  10.3409  10.3659  10.3956  10.4242  10.4332  10.4633  10.4923
    10.5056  10.5247  10.5477  10.5637  10.5770  10.5941  10.6039  10.6328
    10.6572  10.6769  10.6998  10.7141  10.7380  10.7825  10.7935  10.8170
    10.8738  10.8866  10.9181  10.9361  10.9470  10.9685  10.9911  10.9963
    11.0337  11.0549  11.0805  11.1302  11.1540  11.1891  11.2076  11.2271
    11.2541  11.2839  11.3451  11.4095  11.8007  11.8190  11.8700  11.8775
    13.1994  13.2642  13.2826  13.4801  13.5013  13.5744  13.5998  13.7739
    13.9044  13.9232  14.0646  14.0746  14.1930  14.3270  14.3953  14.4656
    14.5390  14.5963  14.6770  14.7128  14.7619  14.7655  14.8286  14.8740
    14.9155  14.9410  14.9621  14.9870  15.0003  15.0079  15.0497  15.0653
    15.0817  15.1292  15.1451  15.1969  15.2166  15.2242  15.2574  15.3195
    15.3407  15.3633  15.4259  15.4490  15.4611  15.4926  15.5531  15.5757
    15.6063  15.6258  15.6334  15.6561  15.6723  15.6802  15.6946  15.7250
    15.7437  15.7651  15.7843  15.8306  15.8403  15.8743  15.8827  15.8908
    15.9004  15.9310  15.9422  15.9638  15.9749  15.9963  16.0077  16.0250
    16.0565  16.0827  16.0959  16.1340  16.1434  16.1622  16.2141  16.2196
    16.2328  16.2539  16.2631  16.2760  16.2904  16.3299  16.3596  16.3904
    16.3997  16.4451  16.4585  16.4695  16.4915  16.4994  16.5131  16.5302

          k = 0.0000-0.5774 0.2041 (549100 PWs)   bands (ev):

   -43.6949 -43.5727 -43.5379 -43.5355 -43.5120 -43.5002 -43.4800 -43.4614
   -43.4573 -43.4459 -43.4424 -43.4371 -43.4348 -43.4240 -43.4215 -43.4084
   -43.4036 -43.3988 -43.3922 -43.3883 -43.3771 -43.3696 -43.3643 -43.3603
   -43.3560 -43.3491 -43.3380 -43.3227 -43.3184 -43.3011 -43.2875 -43.2562
   -20.1245 -20.0154 -20.0080 -20.0059 -19.9973 -19.9932 -19.9825 -19.9737
   -19.9697 -19.9603 -19.9504 -19.9452 -19.9346 -19.9324 -19.9286 -19.9224
   -19.9135 -19.9083 -19.9012 -19.8970 -19.8949 -19.8940 -19.8904 -19.8874
   -19.8752 -19.8686 -19.8623 -19.8617 -19.8542 -19.8472 -19.8436 -19.8394
   -19.8316 -19.8300 -19.8263 -19.8228 -19.8089 -19.8051 -19.7999 -19.7862
   -19.7821 -19.7711 -19.7700 -19.7662 -19.7632 -19.7619 -19.7471 -19.7429
   -19.7341 -19.7287 -19.7260 -19.7205 -19.7158 -19.7098 -19.7064 -19.6984
   -19.6909 -19.6846 -19.6832 -19.6806 -19.6766 -19.6694 -19.6672 -19.6650
   -19.6546 -19.6534 -19.6448 -19.6421 -19.6337 -19.6261 -19.6223 -19.6191
   -19.6152 -19.6062 -19.6042 -19.6015 -19.5972 -19.5914 -19.5903 -19.5818
   -19.5811 -19.5726 -19.5722 -19.5707 -19.5582 -19.5567 -19.5507 -19.5435
   -19.5378 -19.5335 -19.5259 -19.5187 -19.5055 -19.5025 -19.4783 -19.4705
    -3.4714  -3.2192  -2.8447  -2.7551  -2.7098  -2.6620  -2.5509  -2.4075
    -2.1547  -2.0768  -2.0238  -1.9765  -1.9236  -1.8899  -1.7523  -1.7114
    -1.6563  -1.6410  -1.6212  -1.5900  -1.4818  -1.4722  -1.4354  -1.3755
    -1.3412  -1.3162  -1.2848  -1.2774  -1.2496  -1.2279  -1.1971  -1.1631
    -1.1362  -1.1218  -1.0873  -1.0688  -1.0394  -1.0325  -1.0265  -1.0180
    -1.0007  -0.9827  -0.9729  -0.9266  -0.9048  -0.8886  -0.8647  -0.8452
    -0.8352  -0.8067  -0.7811  -0.7734  -0.7615  -0.7572  -0.7295  -0.7184
    -0.6850  -0.6754  -0.6536  -0.6471  -0.6156  -0.5985  -0.5656  -0.5272
     5.1313   5.2693   5.3373   5.3974   5.5238   5.7060   5.9044   5.9527
     6.0135   6.0350   6.0912   6.1477   6.2373   6.2798   6.3173   6.3456
     6.3990   6.4191   6.5280   6.5883   6.6377   6.6829   6.7253   6.7715
     6.8155   6.8499   6.8728   6.8903   6.9367   6.9671   6.9833   7.0281
     7.0810   7.1546   7.1744   7.2158   7.2233   7.2931   7.3563   7.3831
     7.4073   7.4898   7.5058   7.5116   7.5355   7.5557   7.5880   7.6768
     7.7025   7.7429   7.7629   7.8282   7.8786   7.9206   7.9878   8.0365
     8.0935   8.1152   8.1497   8.1669   8.1773   8.2350   8.2555   8.2748
     8.3023   8.4026   8.4561   8.4771   8.4980   8.5332   8.5784   8.6086
     8.6461   8.7031   8.7102   8.7617   8.8211   8.8334   8.8724   8.8799
     8.8889   8.9066   8.9349   9.0146   9.0361   9.0505   9.0675   9.0988
     9.1056   9.1269   9.1750   9.1787   9.2018   9.2301   9.2540   9.2705
     9.2949   9.3091   9.3415   9.3593   9.3752   9.4052   9.4164   9.4554
     9.4628   9.4824   9.5034   9.5237   9.5290   9.5686   9.6012   9.6198
     9.6490   9.6606   9.6693   9.6937   9.7269   9.7413   9.7596   9.7959
     9.8126   9.8319   9.8499   9.8787   9.8965   9.9028   9.9275   9.9338
     9.9403   9.9876  10.0121  10.0446  10.0525  10.0681  10.0783  10.0918
    10.1450  10.1820  10.2007  10.2018  10.2180  10.2357  10.2559  10.2813
    10.3260  10.3520  10.3660  10.3801  10.4098  10.4288  10.4548  10.4656
    10.4761  10.5017  10.5440  10.5570  10.5700  10.5814  10.6070  10.6148
    10.6494  10.6679  10.6867  10.7326  10.7650  10.7692  10.8158  10.8207
    10.8304  10.8665  10.8923  10.9362  10.9586  10.9678  10.9825  11.0106
    11.0263  11.0897  11.1064  11.1143  11.1564  11.1858  11.2186  11.2420
    11.2530  11.3208  11.3401  11.3625  11.7562  11.7818  11.9050  11.9287
    13.1875  13.2203  13.2561  13.4821  13.5209  13.6361  13.7134  13.7696
    13.8661  13.8912  13.9598  14.1960  14.2426  14.3079  14.4027  14.4717
    14.5296  14.6231  14.6980  14.7296  14.7633  14.7820  14.8104  14.8665
    14.8896  14.9458  14.9700  14.9717  15.0027  15.0230  15.0388  15.0659
    15.0809  15.1320  15.1782  15.1849  15.2144  15.2360  15.2402  15.2636
    15.3140  15.3237  15.3714  15.4176  15.4473  15.4944  15.5307  15.5575
    15.5811  15.5832  15.6109  15.6275  15.6619  15.6782  15.7066  15.7248
    15.7529  15.7892  15.7988  15.8120  15.8249  15.8302  15.8911  15.9122
    15.9419  15.9537  15.9738  15.9804  16.0052  16.0243  16.0506  16.0661
    16.0945  16.1227  16.1457  16.1535  16.1603  16.2008  16.2113  16.2288
    16.2435  16.2547  16.2641  16.2970  16.3175  16.3313  16.3646  16.3750
    16.3830  16.4189  16.4290  16.4583  16.4620  16.4831  16.4894  16.5295

          k = 0.0000-0.5774-0.4082 (549244 PWs)   bands (ev):

   -43.6949 -43.5727 -43.5379 -43.5355 -43.5121 -43.5002 -43.4799 -43.4608
   -43.4573 -43.4476 -43.4416 -43.4372 -43.4343 -43.4242 -43.4216 -43.4085
   -43.4035 -43.3977 -43.3929 -43.3895 -43.3762 -43.3690 -43.3642 -43.3611
   -43.3558 -43.3491 -43.3380 -43.3236 -43.3172 -43.3017 -43.2873 -43.2562
   -20.1244 -20.0147 -20.0093 -20.0029 -20.0009 -19.9966 -19.9855 -19.9804
   -19.9717 -19.9567 -19.9458 -19.9430 -19.9394 -19.9318 -19.9256 -19.9227
   -19.9130 -19.9063 -19.9037 -19.9017 -19.8980 -19.8915 -19.8870 -19.8811
   -19.8736 -19.8698 -19.8633 -19.8595 -19.8555 -19.8478 -19.8428 -19.8378
   -19.8288 -19.8253 -19.8209 -19.8130 -19.8088 -19.8039 -19.7994 -19.7885
   -19.7821 -19.7783 -19.7719 -19.7682 -19.7596 -19.7565 -19.7482 -19.7400
   -19.7340 -19.7331 -19.7279 -19.7201 -19.7147 -19.7066 -19.7051 -19.7010
   -19.6976 -19.6908 -19.6865 -19.6787 -19.6771 -19.6730 -19.6697 -19.6672
   -19.6567 -19.6491 -19.6458 -19.6387 -19.6368 -19.6301 -19.6279 -19.6251
   -19.6158 -19.6135 -19.6065 -19.5985 -19.5967 -19.5916 -19.5864 -19.5830
   -19.5782 -19.5705 -19.5696 -19.5678 -19.5568 -19.5502 -19.5487 -19.5383
   -19.5348 -19.5328 -19.5274 -19.5205 -19.5067 -19.5026 -19.4791 -19.4713
    -3.3778  -3.2377  -2.9356  -2.9090  -2.8330  -2.7522  -2.1876  -2.1385
    -2.1241  -2.0827  -2.0256  -1.9870  -1.9531  -1.8341  -1.7768  -1.7104
    -1.7045  -1.6958  -1.6098  -1.5891  -1.5683  -1.5350  -1.4052  -1.3934
    -1.3744  -1.3405  -1.3152  -1.2923  -1.2434  -1.2177  -1.1945  -1.1757
    -1.1644  -1.1505  -1.1301  -1.0814  -1.0710  -1.0345  -1.0196  -1.0063
    -0.9953  -0.9627  -0.9521  -0.9290  -0.8928  -0.8895  -0.8764  -0.8468
    -0.8207  -0.7950  -0.7858  -0.7729  -0.7402  -0.7308  -0.7238  -0.7077
    -0.6875  -0.6588  -0.6381  -0.6272  -0.6166  -0.5941  -0.5475  -0.5428
     5.2309   5.3623   5.4070   5.5662   5.6353   5.6822   5.7042   5.7828
     5.9378   5.9592   5.9792   6.0862   6.2132   6.2688   6.3276   6.4168
     6.4679   6.4954   6.5204   6.6163   6.6302   6.6726   6.7179   6.7652
     6.7902   6.8140   6.8593   6.8843   6.8943   6.9882   7.0138   7.0344
     7.0690   7.0843   7.1228   7.1743   7.1953   7.2964   7.3389   7.3726
     7.3972   7.4488   7.4866   7.5444   7.5714   7.6165   7.6631   7.6977
     7.7071   7.7730   7.7880   7.8191   7.8721   7.8996   7.9449   7.9822
     8.0078   8.0213   8.0728   8.0927   8.1391   8.1578   8.1953   8.2121
     8.2669   8.3379   8.3502   8.3978   8.4280   8.5229   8.5444   8.6091
     8.7272   8.7799   8.7937   8.8343   8.8521   8.8880   8.8990   8.9489
     8.9868   9.0367   9.0759   9.0761   9.1191   9.1281   9.1585   9.2059
     9.2184   9.2351   9.2420   9.2467   9.2812   9.3042   9.3216   9.3448
     9.3579   9.3675   9.3911   9.4000   9.4133   9.4263   9.4504   9.4656
     9.4824   9.5076   9.5270   9.5457   9.5658   9.5847   9.5941   9.6311
     9.6369   9.6611   9.6833   9.7097   9.7518   9.7622   9.7685   9.7951
     9.7974   9.8244   9.8571   9.8625   9.8908   9.9175   9.9408   9.9492
     9.9592   9.9839  10.0044  10.0214  10.0483  10.0550  10.0869  10.0926
    10.1126  10.1484  10.1545  10.1765  10.1860  10.2393  10.2608  10.3151
    10.3306  10.3407  10.3561  10.3685  10.4034  10.4186  10.4257  10.4418
    10.4589  10.4709  10.4948  10.5151  10.5233  10.5479  10.5715  10.5952
    10.6289  10.6489  10.6731  10.6987  10.7140  10.7436  10.7509  10.7687
    10.7868  10.8257  10.8410  10.8577  10.8868  10.9044  10.9324  10.9437
    10.9609  10.9711  10.9918  11.0396  11.0569  11.1012  11.2097  11.2592
    11.2987  11.3528  11.4606  11.5481  11.6783  11.6994  11.7941  11.8014
    12.7086  13.1132  13.5888  13.6075  13.8409  13.8568  13.9304  14.0203
    14.0772  14.1561  14.1701  14.2386  14.2780  14.2884  14.3898  14.4289
    14.4624  14.4902  14.5012  14.5691  14.6316  14.6859  14.7324  14.7593
    14.8049  14.8338  14.8617  14.9168  14.9311  15.0015  15.0281  15.0611
    15.1124  15.1454  15.1705  15.2197  15.2716  15.3026  15.3221  15.3366
    15.3740  15.3897  15.4018  15.4431  15.4540  15.5253  15.5368  15.5554
    15.5930  15.6172  15.6597  15.6720  15.6962  15.7174  15.7253  15.7458
    15.7679  15.7927  15.7952  15.8196  15.8489  15.8501  15.8862  15.8897
    15.9146  15.9319  15.9375  15.9586  15.9711  15.9929  16.0171  16.0315
    16.0466  16.0943  16.1027  16.1229  16.1566  16.1782  16.1886  16.2015
    16.2167  16.2309  16.2420  16.2626  16.2786  16.3044  16.3141  16.3322
    16.3432  16.3665  16.3863  16.3993  16.4093  16.4375  16.4498  16.4817

          k = 0.5000 0.2887 0.2041 (549100 PWs)   bands (ev):

   -43.6949 -43.5727 -43.5379 -43.5355 -43.5121 -43.5002 -43.4799 -43.4609
   -43.4572 -43.4476 -43.4416 -43.4372 -43.4343 -43.4242 -43.4215 -43.4094
   -43.4023 -43.3975 -43.3932 -43.3896 -43.3762 -43.3697 -43.3642 -43.3607
   -43.3557 -43.3491 -43.3380 -43.3229 -43.3183 -43.3012 -43.2874 -43.2562
   -20.1245 -20.0117 -20.0102 -20.0069 -20.0011 -20.0000 -19.9868 -19.9773
   -19.9574 -19.9524 -19.9503 -19.9429 -19.9390 -19.9355 -19.9301 -19.9235
   -19.9157 -19.9074 -19.9062 -19.9009 -19.8965 -19.8926 -19.8897 -19.8797
   -19.8772 -19.8655 -19.8625 -19.8618 -19.8521 -19.8499 -19.8452 -19.8370
   -19.8284 -19.8240 -19.8188 -19.8157 -19.8079 -19.8039 -19.7956 -19.7931
   -19.7782 -19.7724 -19.7704 -19.7678 -19.7651 -19.7551 -19.7420 -19.7409
   -19.7360 -19.7328 -19.7285 -19.7264 -19.7165 -19.7074 -19.7019 -19.6960
   -19.6940 -19.6901 -19.6866 -19.6834 -19.6809 -19.6752 -19.6670 -19.6641
   -19.6637 -19.6536 -19.6477 -19.6403 -19.6370 -19.6274 -19.6257 -19.6190
   -19.6168 -19.6082 -19.6077 -19.6013 -19.5973 -19.5913 -19.5869 -19.5836
   -19.5788 -19.5741 -19.5676 -19.5634 -19.5583 -19.5497 -19.5480 -19.5399
   -19.5371 -19.5321 -19.5283 -19.5202 -19.5038 -19.5024 -19.4793 -19.4721
    -3.3951  -3.3519  -2.8291  -2.7795  -2.6798  -2.5788  -2.5108  -2.3249
    -2.1643  -2.1356  -2.0785  -2.0057  -1.9999  -1.9391  -1.7722  -1.7603
    -1.6751  -1.6613  -1.6087  -1.5735  -1.4398  -1.4110  -1.3715  -1.3457
    -1.3372  -1.3161  -1.2998  -1.2579  -1.2308  -1.2119  -1.1634  -1.1484
    -1.1360  -1.1233  -1.0964  -1.0726  -1.0545  -1.0417  -1.0373  -1.0018
    -0.9766  -0.9695  -0.9562  -0.9308  -0.9169  -0.9054  -0.8877  -0.8456
    -0.8345  -0.8295  -0.7977  -0.7950  -0.7799  -0.7698  -0.7381  -0.7049
    -0.6837  -0.6750  -0.6511  -0.6425  -0.6261  -0.5919  -0.5439  -0.5349
     5.0507   5.1520   5.5078   5.5623   5.6439   5.7349   5.8310   5.9328
     5.9406   5.9759   6.0762   6.1276   6.2192   6.3078   6.3260   6.3623
     6.4380   6.4581   6.5298   6.5979   6.6014   6.6511   6.6871   6.7439
     6.7844   6.8266   6.8444   6.8830   6.9089   6.9726   6.9892   7.0226
     7.0263   7.0667   7.1119   7.1816   7.2757   7.2919   7.3086   7.3568
     7.3620   7.4453   7.4801   7.5099   7.6048   7.6276   7.6335   7.6766
     7.7524   7.7695   7.8309   7.8625   7.9311   7.9465   7.9667   7.9984
     8.0917   8.1002   8.1547   8.1848   8.1986   8.2120   8.2747   8.3310
     8.3783   8.4134   8.4338   8.4646   8.5136   8.5722   8.5988   8.6510
     8.6837   8.6955   8.7515   8.7750   8.8202   8.8219   8.8622   8.8826
     8.8878   8.9350   8.9684   9.0009   9.0122   9.0395   9.0510   9.1023
     9.1298   9.1635   9.2003   9.2158   9.2345   9.2502   9.2603   9.2946
     9.3033   9.3177   9.3358   9.3484   9.3552   9.3691   9.4154   9.4424
     9.4449   9.4631   9.4803   9.4899   9.5164   9.5412   9.5826   9.5921
     9.6122   9.6183   9.6501   9.6767   9.6950   9.7034   9.7342   9.7525
     9.7943   9.8009   9.8134   9.8361   9.8555   9.8724   9.9063   9.9163
     9.9445   9.9830   9.9976  10.0425  10.0515  10.0891  10.0959  10.1155
    10.1379  10.1725  10.2032  10.2190  10.2379  10.2525  10.2674  10.3125
    10.3383  10.3524  10.3631  10.3960  10.4132  10.4348  10.4650  10.4715
    10.5062  10.5348  10.5614  10.5933  10.6092  10.6159  10.6412  10.6507
    10.6864  10.6972  10.6982  10.7100  10.7421  10.7786  10.7991  10.8243
    10.8305  10.8736  10.9260  10.9303  10.9443  10.9527  10.9689  11.0035
    11.0248  11.0299  11.0481  11.0827  11.1336  11.1660  11.1974  11.2628
    11.2740  11.2847  11.3751  11.4355  11.8091  11.8258  11.8522  11.8847
    13.1174  13.2482  13.3047  13.3956  13.5055  13.5574  13.6705  13.8040
    13.8408  14.0276  14.1700  14.2091  14.2512  14.3061  14.3892  14.4842
    14.5162  14.5848  14.6573  14.6816  14.7435  14.7801  14.7956  14.8545
    14.8700  14.8989  14.9237  14.9504  14.9611  15.0061  15.0107  15.0573
    15.0861  15.1051  15.1114  15.1781  15.2205  15.2479  15.2780  15.3387
    15.3876  15.4092  15.4152  15.4328  15.4734  15.4995  15.5140  15.5252
    15.5676  15.5854  15.6096  15.6260  15.6434  15.6489  15.6888  15.7043
    15.7303  15.7468  15.7856  15.8024  15.8321  15.8548  15.8639  15.8942
    15.9129  15.9419  15.9568  15.9646  15.9845  16.0047  16.0609  16.0913
    16.1048  16.1206  16.1331  16.1541  16.1674  16.1888  16.1976  16.2046
    16.2299  16.2595  16.2876  16.2994  16.3208  16.3267  16.3585  16.3757
    16.3808  16.3994  16.4148  16.4441  16.4782  16.4944  16.5031  16.5313

          k =-0.5000 0.2887 0.2041 (549100 PWs)   bands (ev):

   -43.6949 -43.5727 -43.5379 -43.5355 -43.5121 -43.5002 -43.4799 -43.4609
   -43.4572 -43.4477 -43.4416 -43.4374 -43.4341 -43.4243 -43.4215 -43.4090
   -43.4021 -43.3977 -43.3919 -43.3916 -43.3762 -43.3690 -43.3644 -43.3604
   -43.3559 -43.3492 -43.3380 -43.3238 -43.3171 -43.3016 -43.2873 -43.2562
   -20.1244 -20.0141 -20.0092 -20.0050 -20.0023 -19.9995 -19.9899 -19.9758
   -19.9650 -19.9582 -19.9459 -19.9410 -19.9348 -19.9320 -19.9280 -19.9273
   -19.9126 -19.9099 -19.9079 -19.9054 -19.8962 -19.8940 -19.8867 -19.8806
   -19.8701 -19.8650 -19.8624 -19.8595 -19.8544 -19.8468 -19.8419 -19.8396
   -19.8338 -19.8260 -19.8194 -19.8122 -19.8059 -19.8002 -19.7950 -19.7926
   -19.7823 -19.7772 -19.7737 -19.7618 -19.7580 -19.7540 -19.7480 -19.7422
   -19.7318 -19.7275 -19.7220 -19.7186 -19.7129 -19.7104 -19.7072 -19.7046
   -19.6976 -19.6899 -19.6868 -19.6819 -19.6815 -19.6764 -19.6700 -19.6675
   -19.6581 -19.6554 -19.6512 -19.6381 -19.6330 -19.6276 -19.6251 -19.6217
   -19.6159 -19.6105 -19.6067 -19.6019 -19.5980 -19.5932 -19.5882 -19.5845
   -19.5813 -19.5728 -19.5683 -19.5631 -19.5591 -19.5523 -19.5489 -19.5432
   -19.5390 -19.5306 -19.5289 -19.5180 -19.5077 -19.5023 -19.4774 -19.4618
    -3.4706  -3.2257  -2.8544  -2.7516  -2.6969  -2.5906  -2.5475  -2.4847
    -2.1429  -2.0900  -2.0705  -1.9992  -1.9460  -1.8267  -1.7614  -1.7273
    -1.6491  -1.6263  -1.6254  -1.5613  -1.4675  -1.4228  -1.3964  -1.3750
    -1.3664  -1.3288  -1.2999  -1.2878  -1.2370  -1.2009  -1.1991  -1.1634
    -1.1554  -1.1419  -1.1156  -1.0942  -1.0586  -1.0300  -1.0207  -1.0006
    -0.9830  -0.9656  -0.9526  -0.9273  -0.9145  -0.8931  -0.8697  -0.8608
    -0.8313  -0.8190  -0.8076  -0.7829  -0.7798  -0.7415  -0.7239  -0.7001
    -0.6754  -0.6731  -0.6386  -0.6249  -0.6214  -0.5989  -0.5740  -0.5397
     5.0821   5.2751   5.3198   5.4721   5.6104   5.6429   5.8234   5.9389
     6.0176   6.0729   6.1099   6.1587   6.2302   6.2930   6.3048   6.3816
     6.4677   6.5046   6.5676   6.5862   6.6308   6.6568   6.6883   6.7061
     6.7612   6.7780   6.8279   6.8741   6.9394   6.9548   6.9988   7.0394
     7.0701   7.1442   7.1755   7.2124   7.2453   7.2812   7.2881   7.3071
     7.4099   7.4281   7.4815   7.5123   7.5689   7.6250   7.6645   7.7079
     7.7532   7.7870   7.8004   7.8592   7.9003   7.9159   7.9952   8.0095
     8.0646   8.0921   8.1223   8.1652   8.1967   8.2231   8.2786   8.3044
     8.3233   8.3820   8.4276   8.4612   8.5047   8.5217   8.5955   8.6463
     8.6591   8.6937   8.7352   8.7707   8.8215   8.8237   8.8438   8.8905
     8.8975   8.9596   8.9805   9.0072   9.0079   9.0224   9.0413   9.0982
     9.1113   9.1330   9.1693   9.1943   9.2129   9.2347   9.2741   9.2903
     9.3001   9.3241   9.3508   9.3554   9.3667   9.4034   9.4124   9.4354
     9.4708   9.4780   9.4998   9.5206   9.5380   9.5657   9.5875   9.5967
     9.6452   9.6611   9.6799   9.6925   9.7037   9.7256   9.7425   9.7538
     9.7920   9.7997   9.8149   9.8330   9.8856   9.8960   9.9115   9.9287
     9.9544   9.9788   9.9938  10.0122  10.0447  10.0778  10.1026  10.1038
    10.1378  10.1538  10.1683  10.2069  10.2320  10.2450  10.2696  10.2906
    10.3051  10.3326  10.3734  10.3952  10.4202  10.4328  10.4635  10.4865
    10.4960  10.5268  10.5551  10.5643  10.5792  10.5841  10.6256  10.6619
    10.6662  10.7011  10.7039  10.7376  10.7604  10.7989  10.8150  10.8220
    10.8387  10.8799  10.8881  10.9251  10.9388  10.9634  10.9917  11.0001
    11.0238  11.0478  11.0708  11.1191  11.1514  11.1820  11.1923  11.2263
    11.2577  11.3261  11.3750  11.4285  11.7229  11.7759  11.9083  11.9482
    13.0834  13.1753  13.1858  13.4879  13.5628  13.6569  13.7656  13.7853
    13.9026  13.9622  14.0399  14.1094  14.3506  14.3877  14.4431  14.5314
    14.5835  14.6548  14.6664  14.7031  14.7356  14.7493  14.7919  14.8354
    14.8501  14.8675  14.8727  14.9476  14.9808  14.9871  15.0269  15.0461
    15.0696  15.1299  15.1754  15.1853  15.2332  15.2512  15.2705  15.3226
    15.3492  15.3737  15.4053  15.4379  15.4404  15.4623  15.4854  15.5465
    15.5691  15.5907  15.6039  15.6048  15.6321  15.6497  15.6715  15.6980
    15.7074  15.7264  15.7502  15.7982  15.8186  15.8395  15.8945  15.8967
    15.9152  15.9356  15.9591  15.9815  15.9833  16.0063  16.0275  16.0935
    16.1103  16.1313  16.1376  16.1616  16.1885  16.2222  16.2318  16.2353
    16.2458  16.2597  16.2697  16.3068  16.3246  16.3430  16.3558  16.3775
    16.4128  16.4233  16.4283  16.4520  16.4632  16.4889  16.5096  16.5241

          k = 0.5000 0.2887-0.4082 (549244 PWs)   bands (ev):

   -43.6949 -43.5727 -43.5379 -43.5355 -43.5120 -43.5002 -43.4799 -43.4614
   -43.4572 -43.4459 -43.4425 -43.4371 -43.4348 -43.4240 -43.4216 -43.4093
   -43.4027 -43.3986 -43.3925 -43.3883 -43.3770 -43.3690 -43.3643 -43.3608
   -43.3559 -43.3491 -43.3379 -43.3238 -43.3171 -43.3016 -43.2873 -43.2562
   -20.1244 -20.0117 -20.0068 -20.0019 -20.0001 -19.9913 -19.9789 -19.9725
   -19.9611 -19.9539 -19.9476 -19.9449 -19.9386 -19.9317 -19.9286 -19.9227
   -19.9178 -19.9109 -19.9052 -19.9017 -19.9001 -19.8947 -19.8912 -19.8889
   -19.8829 -19.8731 -19.8679 -19.8607 -19.8573 -19.8537 -19.8448 -19.8432
   -19.8339 -19.8297 -19.8204 -19.8200 -19.8161 -19.8079 -19.7986 -19.7955
   -19.7831 -19.7802 -19.7708 -19.7594 -19.7535 -19.7532 -19.7454 -19.7372
   -19.7341 -19.7271 -19.7247 -19.7172 -19.7107 -19.7080 -19.7041 -19.6961
   -19.6900 -19.6868 -19.6828 -19.6802 -19.6773 -19.6688 -19.6656 -19.6588
   -19.6525 -19.6517 -19.6460 -19.6357 -19.6329 -19.6270 -19.6214 -19.6169
   -19.6143 -19.6061 -19.6051 -19.6010 -19.5958 -19.5919 -19.5902 -19.5822
   -19.5810 -19.5782 -19.5758 -19.5697 -19.5653 -19.5538 -19.5523 -19.5420
   -19.5393 -19.5313 -19.5284 -19.5187 -19.5086 -19.5036 -19.4775 -19.4732
    -3.3829  -3.2160  -2.9803  -2.9329  -2.8189  -2.7030  -2.2187  -2.1052
    -2.0764  -2.0551  -2.0164  -1.9837  -1.9607  -1.8793  -1.7997  -1.7639
    -1.7165  -1.6974  -1.6459  -1.6160  -1.6010  -1.5429  -1.4176  -1.4030
    -1.3437  -1.3138  -1.2784  -1.2438  -1.2186  -1.2061  -1.1922  -1.1738
    -1.1551  -1.1202  -1.1049  -1.0837  -1.0742  -1.0391  -1.0311  -1.0069
    -0.9717  -0.9589  -0.9488  -0.9228  -0.9061  -0.9029  -0.8719  -0.8618
    -0.8461  -0.8084  -0.7822  -0.7657  -0.7580  -0.7379  -0.7202  -0.6907
    -0.6731  -0.6522  -0.6491  -0.6299  -0.6136  -0.5892  -0.5869  -0.5458
     5.2084   5.3811   5.5007   5.5349   5.5890   5.6080   5.7257   5.8504
     5.9530   6.0176   6.0478   6.1337   6.1819   6.2874   6.3185   6.3950
     6.4046   6.4401   6.4895   6.5411   6.5906   6.6115   6.6790   6.7475
     6.7929   6.8339   6.8877   6.9014   6.9796   6.9899   7.0147   7.0743
     7.0797   7.1130   7.1545   7.2024   7.2332   7.2950   7.3317   7.3557
     7.3946   7.4263   7.4682   7.4991   7.5349   7.5605   7.5757   7.6662
     7.6857   7.7780   7.7961   7.8379   7.8615   7.8942   7.9281   7.9392
     8.0083   8.0480   8.0830   8.1130   8.1406   8.1575   8.1882   8.2372
     8.2505   8.2865   8.3622   8.4395   8.5173   8.5561   8.5749   8.6805
     8.7230   8.7855   8.8441   8.8791   8.9265   8.9488   8.9844   8.9963
     9.0088   9.0342   9.0437   9.0700   9.0854   9.1111   9.1308   9.1743
     9.1977   9.2025   9.2366   9.2488   9.2815   9.2816   9.3136   9.3434
     9.3623   9.3732   9.3822   9.4086   9.4108   9.4388   9.4540   9.4723
     9.4891   9.4949   9.5167   9.5267   9.5538   9.5698   9.5940   9.5991
     9.6389   9.6498   9.6564   9.6984   9.7100   9.7365   9.7608   9.7633
     9.7770   9.7992   9.8296   9.8365   9.8738   9.9104   9.9195   9.9379
     9.9678   9.9827  10.0401  10.0549  10.0657  10.0813  10.1027  10.1135
    10.1541  10.1563  10.1776  10.1929  10.1958  10.2298  10.2576  10.2715
    10.2845  10.3319  10.3539  10.3637  10.3886  10.3968  10.4193  10.4448
    10.4544  10.5016  10.5096  10.5267  10.5443  10.5619  10.5997  10.6023
    10.6251  10.6480  10.6945  10.6956  10.7084  10.7301  10.7457  10.7593
    10.7639  10.8030  10.8526  10.8843  10.9039  10.9119  10.9325  10.9519
    10.9688  10.9941  11.0171  11.0248  11.0968  11.1181  11.1725  11.2274
    11.2502  11.3971  11.4327  11.5069  11.6920  11.7259  11.7554  11.8111
    12.8698  13.0320  13.5836  13.6321  13.8415  13.9109  13.9699  14.0067
    14.0377  14.0686  14.1198  14.1537  14.2251  14.2920  14.3242  14.3972
    14.4318  14.5038  14.5521  14.5859  14.6269  14.6394  14.7688  14.8113
    14.8325  14.8701  14.8988  14.9006  14.9567  15.0000  15.0451  15.0874
    15.1268  15.1387  15.2133  15.2454  15.2582  15.3035  15.3103  15.3420
    15.3488  15.3906  15.4316  15.4433  15.4740  15.4921  15.5351  15.5704
    15.6018  15.6327  15.6594  15.6758  15.6898  15.7059  15.7360  15.7452
    15.7715  15.7954  15.8137  15.8212  15.8485  15.8780  15.8852  15.9013
    15.9303  15.9496  15.9616  15.9704  15.9850  15.9992  16.0139  16.0539
    16.0545  16.0920  16.0967  16.1170  16.1281  16.1462  16.1790  16.1933
    16.2208  16.2266  16.2484  16.2619  16.2917  16.2939  16.3079  16.3397
    16.3539  16.3656  16.3845  16.3971  16.4062  16.4363  16.4433  16.4655

          k =-0.5000 0.2887-0.4082 (549244 PWs)   bands (ev):

   -43.6949 -43.5727 -43.5379 -43.5355 -43.5120 -43.5002 -43.4799 -43.4615
   -43.4573 -43.4460 -43.4427 -43.4371 -43.4345 -43.4239 -43.4216 -43.4095
   -43.4019 -43.3988 -43.3920 -43.3894 -43.3770 -43.3696 -43.3645 -43.3600
   -43.3557 -43.3492 -43.3381 -43.3229 -43.3183 -43.3012 -43.2874 -43.2562
   -20.1246 -20.0124 -20.0076 -20.0068 -20.0016 -19.9930 -19.9880 -19.9745
   -19.9660 -19.9590 -19.9551 -19.9432 -19.9359 -19.9300 -19.9247 -19.9220
   -19.9191 -19.9081 -19.9018 -19.8996 -19.8980 -19.8949 -19.8910 -19.8851
   -19.8752 -19.8702 -19.8655 -19.8577 -19.8545 -19.8488 -19.8365 -19.8335
   -19.8305 -19.8249 -19.8226 -19.8170 -19.8115 -19.8029 -19.7961 -19.7868
   -19.7843 -19.7768 -19.7687 -19.7653 -19.7627 -19.7581 -19.7432 -19.7402
   -19.7370 -19.7349 -19.7300 -19.7217 -19.7171 -19.7063 -19.7030 -19.7008
   -19.6920 -19.6872 -19.6848 -19.6838 -19.6762 -19.6696 -19.6673 -19.6659
   -19.6570 -19.6541 -19.6527 -19.6404 -19.6315 -19.6284 -19.6228 -19.6154
   -19.6122 -19.6071 -19.6029 -19.6006 -19.5950 -19.5915 -19.5872 -19.5830
   -19.5807 -19.5751 -19.5738 -19.5697 -19.5625 -19.5556 -19.5507 -19.5485
   -19.5385 -19.5334 -19.5278 -19.5185 -19.5055 -19.5032 -19.4780 -19.4615
    -3.3399  -3.2973  -2.9367  -2.8967  -2.8395  -2.7111  -2.1626  -2.1373
    -2.0975  -2.0855  -2.0439  -1.9857  -1.9561  -1.9094  -1.7646  -1.7447
    -1.7278  -1.6939  -1.6512  -1.6120  -1.5806  -1.5579  -1.4273  -1.3978
    -1.3110  -1.2882  -1.2759  -1.2543  -1.2300  -1.2178  -1.2016  -1.1503
    -1.1347  -1.1241  -1.1153  -1.0788  -1.0734  -1.0459  -1.0243  -1.0134
    -0.9903  -0.9622  -0.9558  -0.9206  -0.9030  -0.8888  -0.8620  -0.8378
    -0.8200  -0.8099  -0.7932  -0.7832  -0.7551  -0.7418  -0.7414  -0.7079
    -0.6884  -0.6691  -0.6575  -0.6303  -0.6105  -0.5823  -0.5754  -0.5310
     5.2046   5.3052   5.4383   5.5630   5.6487   5.7280   5.7435   5.8360
     5.9173   5.9341   6.0118   6.1181   6.1771   6.3054   6.3633   6.3852
     6.4410   6.5176   6.5280   6.6004   6.6294   6.6560   6.6879   6.7475
     6.7778   6.7948   6.8348   6.8564   6.9018   6.9478   7.0214   7.0335
     7.0577   7.0822   7.1683   7.1815   7.2185   7.2954   7.3186   7.4008
     7.4209   7.4424   7.4684   7.5022   7.5451   7.5975   7.6395   7.6799
     7.7372   7.7741   7.7951   7.8102   7.8614   7.8859   7.9203   7.9706
     7.9956   8.0294   8.0561   8.0901   8.1174   8.1701   8.2048   8.2368
     8.2867   8.2971   8.3661   8.4583   8.5115   8.5254   8.6264   8.6505
     8.7004   8.7665   8.8311   8.8514   8.8646   8.8927   8.9336   8.9777
     9.0163   9.0344   9.0759   9.0846   9.1116   9.1307   9.1431   9.1765
     9.1789   9.1988   9.2350   9.2441   9.2494   9.2886   9.3089   9.3353
     9.3507   9.3655   9.3707   9.3940   9.4227   9.4293   9.4430   9.4632
     9.4891   9.5045   9.5189   9.5473   9.5589   9.5783   9.6228   9.6320
     9.6380   9.6449   9.6826   9.6978   9.7109   9.7252   9.7536   9.7852
     9.8008   9.8165   9.8420   9.8745   9.8867   9.9120   9.9399   9.9793
     9.9828  10.0185  10.0463  10.0538  10.0694  10.0830  10.0860  10.1098
    10.1469  10.1687  10.1854  10.1958  10.2171  10.2445  10.2610  10.2797
    10.2883  10.2980  10.3078  10.3420  10.3674  10.3721  10.3996  10.4256
    10.4393  10.4598  10.4831  10.4891  10.5158  10.5252  10.5867  10.6115
    10.6306  10.6636  10.6686  10.7136  10.7255  10.7477  10.7659  10.7815
    10.8036  10.8383  10.8515  10.8617  10.8802  10.9167  10.9377  10.9531
    10.9605  10.9694  11.0086  11.0624  11.0933  11.1234  11.1773  11.2394
    11.2537  11.3834  11.4619  11.5026  11.6912  11.7362  11.7740  11.8112
    12.7947  13.0974  13.5763  13.5998  13.8615  13.8977  13.9328  14.0479
    14.0607  14.1176  14.1638  14.1951  14.2534  14.3107  14.3395  14.3960
    14.4462  14.4905  14.5497  14.6262  14.6431  14.6943  14.7219  14.7562
    14.7976  14.8354  14.8835  14.9161  14.9665  14.9812  15.0438  15.0562
    15.0967  15.1417  15.1943  15.2060  15.2231  15.2464  15.2880  15.3180
    15.3306  15.3714  15.4034  15.4369  15.4871  15.4947  15.5342  15.5889
    15.6095  15.6535  15.6726  15.6955  15.7044  15.7155  15.7328  15.7545
    15.7598  15.7782  15.8015  15.8375  15.8616  15.8875  15.8903  15.9075
    15.9133  15.9274  15.9389  15.9574  15.9888  15.9999  16.0032  16.0292
    16.0357  16.0639  16.0874  16.1006  16.1273  16.1678  16.1799  16.1946
    16.2081  16.2272  16.2374  16.2485  16.2628  16.2813  16.3097  16.3386
    16.3513  16.3695  16.3742  16.4022  16.4199  16.4327  16.4370  16.4959

     the Fermi energy is    14.4753 ev

!    total energy              =   -8960.94231695 Ry
     total all-electron energy =    -77206.167488 Ry
     estimated scf accuracy    <       0.00000050 Ry
     smearing contrib. (-TS)   =      -0.00657280 Ry
     internal energy E=F+TS    =   -8960.93574415 Ry

     The total energy is F=E-TS. E is the sum of the following terms:
     one-electron contribution =   -1837.71131392 Ry
     hartree contribution      =    1416.34475462 Ry
     xc contribution           =   -1052.97658151 Ry
     ewald contribution        =   -3776.99859309 Ry
     one-center paw contrib.   =   -3709.59401025 Ry

     convergence has been achieved in  18 iterations

     Forces acting on atoms (cartesian axes, Ry/au):

     atom    1 type  3   force =     0.04041726    0.02051398   -0.01168082
     atom    2 type  2   force =    -0.07328553    0.00530750    0.00121863
     atom    3 type  3   force =     0.05343117   -0.00336031   -0.01313907
     atom    4 type  2   force =    -0.01043459   -0.03888670    0.06665887
     atom    5 type  1   force =    -0.00121228    0.00651575   -0.00529581
     atom    6 type  2   force =     0.04521905   -0.02583495   -0.05958908
     atom    7 type  3   force =    -0.03001848    0.04580886   -0.00626162
     atom    8 type  2   force =    -0.03697399    0.01464019    0.05376593
     atom    9 type  3   force =     0.03547318   -0.02802375   -0.00610641
     atom   10 type  2   force =     0.00129731    0.04746585    0.02946074
     atom   11 type  3   force =    -0.01583424   -0.00940884   -0.05086724
     atom   12 type  2   force =     0.00052471    0.04811512    0.02401670
     atom   13 type  1   force =    -0.00068793   -0.00585273    0.00338039
     atom   14 type  2   force =    -0.04034960    0.01777025   -0.02800789
     atom   15 type  3   force =     0.02671419   -0.02906490    0.03412792
     atom   16 type  2   force =    -0.03711575    0.03299282   -0.02788592
     atom   17 type  3   force =    -0.00076301   -0.05541725    0.04739164
     atom   18 type  2   force =    -0.04351346    0.02827331   -0.03128217
     atom   19 type  3   force =    -0.00096462   -0.02170107   -0.00278735
     atom   20 type  2   force =    -0.03912260    0.02824467    0.05670103
     atom   21 type  3   force =     0.01241231    0.00175829   -0.05930322
     atom   22 type  2   force =    -0.03457882    0.02134905    0.06520852
     atom   23 type  1   force =     0.00607558    0.00196429   -0.00168863
     atom   24 type  2   force =    -0.00524562    0.04335160   -0.06345896
     atom   25 type  1   force =     0.00157389   -0.00098425   -0.00471937
     atom   26 type  2   force =    -0.04558164    0.01593452   -0.03089443
     atom   27 type  3   force =     0.03102125   -0.00852130    0.01632373
     atom   28 type  2   force =    -0.07356804    0.03436548    0.02914983
     atom   29 type  3   force =     0.03915356   -0.03143171   -0.06914841
     atom   30 type  2   force =     0.00084633    0.00302584    0.00753660
     atom   31 type  1   force =    -0.00294424   -0.00145998    0.00325963
     atom   32 type  2   force =    -0.00289993   -0.04376940    0.06022942
     atom   33 type  3   force =    -0.06142427    0.05614565    0.01761024
     atom   34 type  2   force =     0.00315180    0.00155094   -0.00239996
     atom   35 type  3   force =    -0.03793272    0.00214055   -0.00488026
     atom   36 type  2   force =    -0.00283967   -0.00176132    0.08213093
     atom   37 type  1   force =    -0.00152336    0.00863046   -0.00296472
     atom   38 type  2   force =     0.00469205    0.00007315   -0.07922578
     atom   39 type  3   force =    -0.01073354    0.06235206    0.02320825
     atom   40 type  2   force =    -0.00106579   -0.00957199   -0.00512846
     atom   41 type  3   force =    -0.02046224    0.02453814    0.03381701
     atom   42 type  2   force =     0.04970043    0.01725250   -0.03348609
     atom   43 type  3   force =    -0.01477426    0.03427869   -0.03961288
     atom   44 type  2   force =     0.00275033   -0.04518728    0.06065259
     atom   45 type  1   force =    -0.00640230    0.00060563    0.00009257
     atom   46 type  2   force =     0.04178159    0.02187936   -0.02938446
     atom   47 type  3   force =    -0.03689724    0.00284635    0.03497763
     atom   48 type  2   force =    -0.04295774    0.02390991   -0.03256902
     atom   49 type  1   force =     0.00084048   -0.00160903    0.01063127
     atom   50 type  2   force =    -0.00522100    0.00160847   -0.08035227
     atom   51 type  3   force =    -0.00731608   -0.00129541    0.03309647
     atom   52 type  2   force =     0.03699355   -0.01647496    0.02848923
     atom   53 type  1   force =    -0.00808632   -0.00459936   -0.00352759
     atom   54 type  2   force =    -0.04238395   -0.02058345    0.03404932
     atom   55 type  3   force =     0.01675695   -0.02328103   -0.00156168
     atom   56 type  2   force =     0.03486866    0.06003355   -0.00403437
     atom   57 type  1   force =    -0.00381788   -0.00097509    0.00150591
     atom   58 type  2   force =     0.00604301   -0.04983307   -0.02817963
     atom   59 type  3   force =    -0.06801008    0.03547161    0.03309953
     atom   60 type  2   force =    -0.00011000    0.04149787    0.03343292
     atom   61 type  3   force =    -0.00659971    0.00618752   -0.01248234
     atom   62 type  2   force =     0.00341372   -0.00801421    0.00276027
     atom   63 type  1   force =    -0.00356936    0.00036786    0.00542389
     atom   64 type  2   force =     0.00278903   -0.07719305    0.02143264
     atom   65 type  1   force =     0.00264931    0.00292505    0.00161230
     atom   66 type  2   force =     0.03756590   -0.06245455    0.01303745
     atom   67 type  1   force =    -0.00558898   -0.00062555   -0.00202796
     atom   68 type  2   force =     0.00343901   -0.03969935    0.05391203
     atom   69 type  1   force =     0.00443245    0.00341877   -0.00575167
     atom   70 type  2   force =    -0.00718179   -0.04298318   -0.02928671
     atom   71 type  1   force =     0.00749580    0.00202906   -0.00172267
     atom   72 type  2   force =     0.07323123   -0.04054639   -0.03482578
     atom   73 type  3   force =    -0.02187645    0.02137089   -0.00783806
     atom   74 type  2   force =    -0.00597628    0.04042986   -0.05851498
     atom   75 type  3   force =     0.00350551    0.03004600   -0.00827013
     atom   76 type  2   force =     0.00069093    0.03657227    0.03059977
     atom   77 type  3   force =     0.00466863   -0.00398364   -0.00401495
     atom   78 type  2   force =     0.04295893    0.02395750   -0.02676812
     atom   79 type  1   force =    -0.00152214   -0.00230007    0.00105113
     atom   80 type  2   force =     0.00260961   -0.00366472    0.00326323
     atom   81 type  1   force =    -0.00033712   -0.00437131    0.00460123
     atom   82 type  2   force =     0.04053869   -0.02401362   -0.06194068
     atom   83 type  1   force =     0.00255402    0.00173356    0.00473918
     atom   84 type  2   force =     0.03673813   -0.05810877    0.00091782
     atom   85 type  1   force =     0.00021085   -0.00535317   -0.00075777
     atom   86 type  2   force =     0.00245151    0.01223868   -0.00293050
     atom   87 type  3   force =    -0.03272930   -0.03656715   -0.01128853
     atom   88 type  2   force =    -0.00116793    0.03719681    0.02094579
     atom   89 type  1   force =    -0.00362873    0.00414540   -0.00288590
     atom   90 type  2   force =     0.06955731   -0.04286128   -0.02499921
     atom   91 type  1   force =    -0.00226044   -0.00096936   -0.00677859
     atom   92 type  2   force =     0.04407148    0.01966466   -0.03061314
     atom   93 type  3   force =    -0.03817639   -0.01692043    0.01144009
     atom   94 type  2   force =    -0.00178764   -0.00632030    0.00150515
     atom   95 type  1   force =     0.00709495    0.00226506    0.00671913
     atom   96 type  2   force =     0.03355903   -0.06087892   -0.00488164
     atom   97 type  1   force =     0.00562251    0.00393149    0.00272798
     atom   98 type  2   force =     0.03608859   -0.06012825    0.00262251
     atom   99 type  1   force =    -0.00139747    0.00471866    0.00359410
     atom  100 type  2   force =     0.00510867   -0.07805561    0.03151184
     atom  101 type  1   force =    -0.00170275    0.00188156   -0.00917063
     atom  102 type  2   force =    -0.04337143   -0.02239203    0.03608190
     atom  103 type  3   force =     0.03363316    0.06242538   -0.03474161
     atom  104 type  2   force =    -0.03621985   -0.02830835    0.02101523
     atom  105 type  1   force =    -0.00473860   -0.00459723   -0.00419760
     atom  106 type  2   force =    -0.04389613    0.02480011   -0.02842271
     atom  107 type  3   force =     0.02226586    0.00531532   -0.01933724
     atom  108 type  2   force =    -0.00358133    0.07399635   -0.04160328
     atom  109 type  3   force =     0.01507469   -0.02570422    0.02526273
     atom  110 type  2   force =    -0.04375468    0.02630029   -0.02293610
     atom  111 type  3   force =     0.00040830   -0.02256355    0.00208866
     atom  112 type  2   force =     0.07967994    0.04941568    0.03136397
     atom  113 type  3   force =     0.03619789   -0.06027394    0.03677957
     atom  114 type  2   force =     0.00157250    0.03261942    0.02058785
     atom  115 type  1   force =    -0.00210527   -0.00214917    0.00434464
     atom  116 type  2   force =    -0.03532460   -0.05427255    0.00007774
     atom  117 type  1   force =     0.00849877   -0.00644415   -0.00265386
     atom  118 type  2   force =     0.07081632    0.00251536   -0.00428948
     atom  119 type  1   force =    -0.00272255    0.00048724    0.00048096
     atom  120 type  2   force =    -0.02967700    0.02270670   -0.02563330
     atom  121 type  1   force =     0.00566843    0.00283174   -0.00108219
     atom  122 type  2   force =    -0.03504403    0.01990231   -0.02192392
     atom  123 type  3   force =     0.05183387   -0.03337996    0.01647288
     atom  124 type  2   force =     0.02981186    0.05837711   -0.00229044
     atom  125 type  1   force =     0.00103837   -0.00201777   -0.00176420
     atom  126 type  2   force =    -0.00209222    0.00107064    0.00237696
     atom  127 type  1   force =    -0.00116153   -0.00449899    0.00136035
     atom  128 type  2   force =    -0.03503990   -0.02855268    0.03011501

     Total force =     0.588377     Total SCF correction =     0.002411


     Computing stress (Cartesian axis) and pressure

          total   stress  (Ry/bohr**3)                   (kbar)     P=      -88.75
  -0.00062571   0.00000652  -0.00001320          -92.05        0.96       -1.94
   0.00000652  -0.00058430  -0.00000039            0.96      -85.95       -0.06
  -0.00001320  -0.00000039  -0.00059994           -1.94       -0.06      -88.25


     BFGS Geometry Optimization
     Energy error            =      0.0E+00 Ry
     Gradient error          =      8.2E-02 Ry/Bohr
     Cell gradient error     =      9.2E+01 kbar

     number of scf cycles    =   1
     number of bfgs steps    =   0

     enthalpy           new  =   -8960.9423169520 Ry

     new trust radius        =       0.2839053301 bohr
     new conv_thr            =       0.0000010000 Ry

     new unit-cell volume =   7863.44671 a.u.^3 (  1165.24258 Ang^3 )
     density =      4.69075 g/cm^3

CELL_PARAMETERS (angstrom)
  11.804933479   0.001955672  -0.003957608
   5.904160401  10.235102493  -0.002079675
   5.899799920   3.412257619   9.642985988

ATOMIC_POSITIONS (angstrom)
Ti            0.0210571376        0.0107005077       -0.0060956787
N            11.7666376940        1.7103924756        1.2022983537
Ti            1.5027842484        0.8513168569        2.4038885695
N            13.2743114438        2.5404170268        3.6471441971
Al            2.9492699735        1.7095263529        4.8187327821
N            14.7782745474        3.4002926819        5.9920753754
Ti            4.4092183809        2.5830775611        7.2289806913
N            16.2103939215        4.2744550609        8.4619212319
Ti            1.4945167075        2.5441658077       -0.0037088760
N            13.2815266544        4.2911577463        1.2164861198
Ti            2.9427501032        3.4069327106        2.3837153310
N            14.7560751931        5.1445606720        3.6243950960
Al            4.4255806198        4.2618524656        4.8227352197
N            16.2097402382        5.9817985696        6.0080315709
Ti            5.9147969790        5.1028151573        7.2495039097
N            17.6863760228        6.8428010165        8.4188409965
Ti            2.9516696912        5.0886537654        0.0236630197
N            14.7342338014        6.8399219178        1.1843124685
Ti            4.4265263229        5.9592996215        2.4082540595
N            16.2114556112        7.6929713138        3.6409185957
Ti            5.9084562344        6.8245982892        4.7895397448
N            17.6887703648        8.5424403676        6.0560987811
Al           19.1850288486        7.6797249378        7.2263607925
N            19.1790243590        9.4069811309        8.3997733528
Al            4.4289408759        7.6758137945       -0.0040199525
N            16.2091954577        9.3922633350        1.1839950803
Ti            5.9192256442        8.5249504604        2.4176899540
N            17.6695584416       10.2549357868        3.6260438630
Ti            7.3984246904        9.3660694334        4.7838836183
N            19.1832718910       11.0916647573        6.0255118345
Al           20.6563693700       10.2367141834        7.2284216973
N            20.6562572055       11.9203273212        8.4637248563
Ti            2.9192392784        0.0297605172        0.0082002038
N             2.9527540495        1.7069734924        1.2033670719
Ti            4.4064252579        0.8546662590        2.4072199217
N             4.4245680272        2.5583097753        3.6581755494
Al            5.9003410733        1.7111179388        4.8189584826
N             5.9034696144        3.4123322401        5.9848150856
Ti            7.3704935438        2.5921943966        7.2433487225
N             7.3754065653        4.2603663358        8.4341851549
Ti            4.4166109123        2.5720579482        0.0161209186
N             4.4530480846        4.2739408272        1.1866355967
Ti            5.8945374225        3.4302024025        2.3885917453
N             5.9035199600        5.0944416441        3.6464595002
Al            7.3738385129        4.2657086004        4.8200330419
N             7.3988228066        5.9824815951        6.0102678886
Ti            8.8328977998        5.1199386150        7.2489683550
N             8.8296328577        6.8365975289        8.4193692494
Al            5.9037493780        5.1172011572        0.0035120711
N             5.9004864803        6.8245544149        1.1616968064
Ti            7.3744467188        5.9704282814        2.4259697577
N             7.3974054248        7.6681923480        3.6291686084
Al            8.8490015914        6.8217699682        4.8176264692
N             8.8310063880        8.5191075137        6.0428271330
Ti           10.3368904573        7.6650950039        7.2293934348
N            10.3462108105        9.4142162890        8.4337089667
Al            7.3773645906        7.6763069916       -0.0017635449
N             7.3823804467        9.3565066924        1.1883696732
Ti            8.8188745246        8.5483707232        2.4254618430
N             8.8541224490       10.2571945155        3.6312317210
Ti           10.3258185615        9.3861705569        4.8124386584
N            10.3309090156       11.0844414437        6.0259900342
Al           11.8023434185       10.2362004863        7.2325181023
N            11.8055243625       11.9014325853        8.4464697889
Al            5.9038467317        0.0025033148       -0.0011388864
N             5.9219054806        1.6740898132        1.2104185920
Al            7.3745057241        0.8537155749        2.4077116191
N             7.3790736140        2.5390166972        3.6424764143
Al            8.8546768595        1.7088897639        4.8165153974
N             8.8485054680        3.3903682736        6.0098582406
Al           10.3312217148        2.5612297558        7.2293614404
N            10.3653437165        4.2447103037        8.4177034941
Ti            7.3671146259        2.5708954018       -0.0065805274
N             7.3752858633        4.2865108361        1.1726097312
Ti            8.8552868740        3.4284856099        2.4039362811
N             8.8536928936        5.1375638272        3.6298052936
Ti           10.3308390443        4.2638054336        4.8169007209
N            10.3506691737        5.9840542407        6.0106420129
Al           11.8025635141        5.1177471724        7.2302889369
N            11.8045935926        6.8227114800        8.4370492511
Al            8.8543701538        5.1162496243       -0.0006202138
N             8.8755506194        6.8116866204        1.1702964070
Al           10.3308266316        5.9724976417        2.4101976503
N            10.3485069665        7.6469715497        3.6138081343
Al           11.8045563999        6.8218665198        4.8180793625
N            11.8056038139        8.5367155001        6.0225543546
Ti           13.2623470224        7.6586516890        7.2233427146
N            13.2786664127        9.4027938174        8.4457466468
Al           10.3286976998        7.6794660153       -0.0050421967
N            10.3666984187        9.3606364944        1.1890269056
Al           11.8043606607        8.5298634784        2.4036750630
N            11.8283792242       10.2463027102        3.5968513249
Ti           13.2605974839        9.3746070484        4.8239242224
N            13.2794333680       11.0858132051        6.0243473108
Al           14.7591317573       10.2376796046        7.2322019603
N            14.7727918090       11.9104312547        8.4317588656
Al            8.8566287350        0.0035172894       -0.0015472743
N             8.8723713385        1.6757917028        1.2040007490
Al           10.3279219252        0.8569915522        2.4096519017
N            10.3311773095        2.5195051121        3.6298110349
Al           11.8027148706        1.7085765973        4.8137449750
N            11.7808780387        3.4015909304        6.0429478128
Ti           19.2002413933       12.8283170820        7.2090766823
N            13.2595553964        4.2515709807        8.4458397354
Al           10.3272722107        2.5578447762       -0.0056752320
N            10.3067602034        4.2788462361        1.1873123367
Ti           11.8162922948        3.4160804635        2.3971751059
N            11.8027166816        5.1575674321        3.5911812979
Ti           13.2874859347        4.2529689633        4.8311703225
N            13.2567330131        5.9857572959        6.0116651424
Ti           14.7548005201        5.1076699176        7.2298401075
N            14.7959725207        6.8508855319        8.4506933550
Ti           11.8246241432        5.0875912561        0.0151569412
N            11.8064769990        6.8417028920        1.2123307226
Al           13.2796327115        5.9709615196        2.4090034333
N            13.2622033867        7.6494546414        3.6123934132
Al           14.7601071800        6.8217872722        4.8161002027
N            14.7924477660        8.5321401237        6.0208447084
Al           16.2292120326        7.6784650487        7.2284826150
N            16.2150563076        9.3957246858        8.4204833918
Al           13.2847735223        7.6792707206       -0.0050930466
N            13.2634498962        9.3938442715        1.1896584107
Ti           14.7837648627        8.5134565314        2.4147959850
N            14.7721831610       10.2669767485        3.6106271503
Al           16.2322613877        9.3828703700        4.8160452905
N            16.2305085667       11.0901560751        6.0238123484
Al           17.7060646824       10.2346407439        7.2284208223
N            17.6882887215       11.9277705002        8.4490229435



     Writing config-only to output data dir ../output/TiAlN.save/
     NEW-OLD atomic charge density approx. for the potential
     extrapolated charge  762.68617, renormalised to  800.00000

     total cpu time spent up to now is     3518.9 secs

     Self-consistent Calculation

     iteration #  1     ecut=   250.00 Ry     beta= 0.20
     Davidson diagonalization with overlap
     c_bands:  2 eigenvalues not converged
     c_bands:  4 eigenvalues not converged
     ethr =  1.00E-06,  avg # of iterations = 52.5

     total cpu time spent up to now is     5023.1 secs

     total energy              =   -8907.90206167 Ry
     estimated scf accuracy    <     486.84912367 Ry

     iteration #  2     ecut=   250.00 Ry     beta= 0.20
[...]
     9.4988   9.5050   9.5187   9.5345   9.5793   9.6036   9.6161   9.6501
     9.6552   9.6834   9.7118   9.7430   9.7498   9.7987   9.8021   9.8352
     9.8404   9.8624   9.9051   9.9337   9.9386   9.9522   9.9631   9.9970
    10.0212  10.0284  10.0830  10.0859  10.1081  10.1153  10.1517  10.1641
    10.2080  10.2439  10.2550  10.2930  10.2965  10.3190  10.3337  10.3475
    10.3868  10.4066  10.4223  10.4331  10.4631  10.5003  10.5226  10.5614
    10.5678  10.5997  10.6142  10.6352  10.6491  10.6922  10.7217  10.7389
    10.7561  10.7696  10.7954  10.8336  10.8493  10.8783  10.8913  10.9131
    10.9327  10.9622  10.9857  11.0044  11.0217  11.0378  11.0613  11.0878
    11.1032  11.1338  11.1495  11.1761  11.2328  11.2479  11.2566  11.2880
    11.2920  11.3103  11.3291  11.3432  11.3567  11.4172  11.4308  11.4426
    11.4740  11.4865  11.5257  11.5435  11.5719  11.6077  11.6122  11.6593
    11.6648  11.6735  11.7024  11.7187  11.7415  11.7675  11.7761  11.8402
    11.9359  12.0745  12.0900  12.2082  12.2886  12.3815  12.3879  12.4225
    13.0151  13.2336  13.7082  13.7340  14.0263  14.0697  14.1789  14.2267
    14.2524  14.2969  14.3956  14.4678  14.4776  14.5987  14.6299  14.7446
    14.8425  14.8845  14.9471  14.9917  15.0562  15.1102  15.1696  15.3037
    15.3400  15.3983  15.4177  15.4328  15.4799  15.4871  15.5500  15.6035
    15.6212  15.6409  15.7121  15.7570  15.8006  15.8361  15.8537  15.8741
    15.8997  15.9671  15.9946  16.0071  16.0339  16.0756  16.0933  16.1376
    16.1553  16.1773  16.2195  16.2444  16.2714  16.2791  16.3055  16.3374
    16.3533  16.3725  16.3944  16.4214  16.4424  16.4707  16.4880  16.5072
    16.5310  16.5395  16.5609  16.5760  16.5978  16.6107  16.6206  16.6476
    16.6706  16.6814  16.6923  16.7025  16.7571  16.7685  16.7972  16.8013
    16.8365  16.8684  16.8729  16.8973  16.9182  16.9485  16.9720  16.9780
    16.9902  17.0263  17.0322  17.0640  17.0858  17.0872  17.1253  17.1332

          k =-0.5080 0.2927-0.4140 (526752 PWs)   bands (ev):

   -43.2717 -43.1909 -43.1013 -43.0535 -43.0493 -43.0323 -42.9849 -42.9655
   -42.9419 -42.9218 -42.9207 -42.9173 -42.9033 -42.8901 -42.8858 -42.8794
   -42.8602 -42.8528 -42.8509 -42.8320 -42.8264 -42.8211 -42.8129 -42.8062
   -42.7779 -42.7720 -42.7614 -42.6822 -42.6812 -42.6569 -42.6357 -42.6010
   -19.6746 -19.6503 -19.6262 -19.5899 -19.5792 -19.5426 -19.5255 -19.5191
   -19.5095 -19.5036 -19.4965 -19.4830 -19.4785 -19.4722 -19.4669 -19.4594
   -19.4561 -19.4392 -19.4321 -19.4274 -19.4211 -19.4143 -19.4125 -19.4086
   -19.4073 -19.3857 -19.3793 -19.3782 -19.3660 -19.3558 -19.3523 -19.3465
   -19.3231 -19.3173 -19.3082 -19.2968 -19.2886 -19.2809 -19.2748 -19.2684
   -19.2646 -19.2540 -19.2453 -19.2352 -19.2306 -19.2259 -19.2187 -19.2166
   -19.2092 -19.1984 -19.1969 -19.1909 -19.1841 -19.1812 -19.1686 -19.1628
   -19.1473 -19.1415 -19.1340 -19.1302 -19.1261 -19.1215 -19.1100 -19.1069
   -19.1039 -19.0981 -19.0934 -19.0899 -19.0851 -19.0782 -19.0761 -19.0616
   -19.0543 -19.0512 -19.0410 -19.0357 -19.0316 -19.0181 -19.0146 -19.0087
   -19.0045 -18.9890 -18.9817 -18.9729 -18.9526 -18.9422 -18.9339 -18.9323
   -18.9236 -18.9108 -18.9066 -18.8784 -18.8540 -18.8412 -18.7748 -18.7319
    -3.0198  -2.9928  -2.6410  -2.5956  -2.5289  -2.3703  -1.8192  -1.7977
    -1.7559  -1.6860  -1.6699  -1.6181  -1.5732  -1.5116  -1.3968  -1.3592
    -1.3055  -1.2947  -1.2567  -1.2305  -1.1605  -1.1257  -1.0867  -1.0523
    -0.9545  -0.9197  -0.8715  -0.8640  -0.8110  -0.7682  -0.7468  -0.7074
    -0.6968  -0.6913  -0.6534  -0.6271  -0.5862  -0.5646  -0.5405  -0.5367
    -0.5199  -0.4765  -0.4595  -0.4164  -0.4027  -0.3868  -0.3581  -0.3342
    -0.3007  -0.2729  -0.2496  -0.2408  -0.2030  -0.1950  -0.1554  -0.1494
    -0.1278  -0.0632  -0.0486  -0.0308  -0.0026   0.0214   0.0454   0.0793
     5.6750   5.8512   5.9930   6.0532   6.1833   6.2357   6.2613   6.4016
     6.4775   6.4983   6.5161   6.6517   6.7121   6.8417   6.8716   6.9426
     6.9988   7.0838   7.1129   7.1364   7.1550   7.1804   7.2214   7.2699
     7.3207   7.3411   7.3693   7.4007   7.4111   7.4762   7.5086   7.5428
     7.5701   7.5896   7.6280   7.6674   7.6791   7.7706   7.7842   7.8379
     7.8798   7.8851   7.9528   7.9686   7.9863   8.0523   8.1185   8.1346
     8.1637   8.2151   8.2404   8.2795   8.3361   8.3439   8.3606   8.4124
     8.4681   8.4740   8.4916   8.5156   8.5758   8.6103   8.6313   8.6842
     8.7067   8.7530   8.7930   8.8977   8.9543   9.0255   9.1203   9.1448
     9.1835   9.2281   9.2851   9.3153   9.3519   9.3660   9.4151   9.4458
     9.4732   9.5084   9.5185   9.5481   9.5615   9.5959   9.6067   9.6431
     9.6840   9.7024   9.7156   9.7396   9.7458   9.7655   9.7894   9.8090
     9.8565   9.8884   9.9061   9.9267   9.9341   9.9578   9.9806  10.0028
    10.0196  10.0384  10.0700  10.1111  10.1226  10.1495  10.1560  10.1869
    10.2108  10.2185  10.2609  10.2657  10.2854  10.3090  10.3278  10.3562
    10.3999  10.4283  10.4348  10.4863  10.5033  10.5344  10.5536  10.5788
    10.5960  10.6270  10.6448  10.6624  10.6795  10.6940  10.7147  10.7297
    10.7443  10.7743  10.7905  10.8276  10.8379  10.8762  10.8840  10.9188
    10.9314  10.9524  10.9568  10.9822  10.9999  11.0170  11.0614  11.0792
    11.0965  11.1235  11.1413  11.1556  11.1679  11.1915  11.2152  11.2716
    11.3128  11.3367  11.3448  11.3710  11.4016  11.4208  11.4436  11.4702
    11.4940  11.5264  11.5348  11.5502  11.5740  11.6079  11.6182  11.6320
    11.6449  11.6645  11.6949  11.7092  11.7295  11.7507  11.7865  11.8234
    11.9598  12.0666  12.1036  12.1623  12.3332  12.3669  12.3963  12.4386
    12.9496  13.3193  13.6430  13.6955  14.0295  14.0811  14.1380  14.2575
    14.2946  14.3458  14.4459  14.4772  14.5323  14.5478  14.6832  14.7694
    14.8450  14.8584  14.9837  15.0426  15.0606  15.1689  15.1836  15.2810
    15.3070  15.3218  15.3652  15.4265  15.4551  15.4992  15.5338  15.5790
    15.6092  15.6208  15.6612  15.6916  15.7550  15.7878  15.7923  15.8208
    15.8846  15.9177  15.9637  15.9958  16.0326  16.0624  16.1401  16.1440
    16.1530  16.1954  16.2434  16.2641  16.2880  16.3077  16.3392  16.3469
    16.3752  16.3873  16.4203  16.4232  16.4558  16.4876  16.4906  16.4975
    16.5265  16.5344  16.5563  16.5653  16.5856  16.6003  16.6107  16.6225
    16.6290  16.6602  16.7048  16.7099  16.7142  16.7683  16.7818  16.8019
    16.8302  16.8430  16.8535  16.8886  16.8992  16.9310  16.9682  17.0002
    17.0297  17.0430  17.0507  17.0855  17.1112  17.1176  17.1288  17.1359

     the Fermi energy is    14.8266 ev

!    total energy              =   -8961.47723368 Ry
     total all-electron energy =    -77206.702404 Ry
     estimated scf accuracy    <          8.9E-09 Ry
     smearing contrib. (-TS)   =      -0.00346823 Ry
     internal energy E=F+TS    =   -8961.47376545 Ry

     The total energy is F=E-TS. E is the sum of the following terms:
     one-electron contribution =   -1683.46333963 Ry
     hartree contribution      =    1357.25105989 Ry
     xc contribution           =   -1057.11166618 Ry
     ewald contribution        =   -3868.21123607 Ry
     one-center paw contrib.   =   -3709.93858345 Ry

     convergence has been achieved in  22 iterations

     Forces acting on atoms (cartesian axes, Ry/au):

     atom    1 type  3   force =    -0.00000078    0.00001781   -0.00000370
     atom    2 type  2   force =     0.00005455    0.00004650   -0.00000919
     atom    3 type  3   force =     0.00003956    0.00003101   -0.00000926
     atom    4 type  2   force =    -0.00000204   -0.00002212    0.00002682
     atom    5 type  1   force =     0.00000947   -0.00002368   -0.00000198
     atom    6 type  2   force =    -0.00003835    0.00000118    0.00000165
     atom    7 type  3   force =     0.00000575   -0.00001017   -0.00001427
     atom    8 type  2   force =    -0.00000336   -0.00001466   -0.00003308
     atom    9 type  3   force =    -0.00000299    0.00004921    0.00000282
     atom   10 type  2   force =     0.00004461   -0.00003296   -0.00000031
     atom   11 type  3   force =     0.00002673   -0.00004204    0.00003770
     atom   12 type  2   force =     0.00001205   -0.00002455   -0.00003693
     atom   13 type  1   force =     0.00000824   -0.00003053    0.00000187
     atom   14 type  2   force =     0.00000318   -0.00001601    0.00001588
     atom   15 type  3   force =     0.00000984   -0.00000593   -0.00002462
     atom   16 type  2   force =     0.00005559    0.00000103   -0.00000048
     atom   17 type  3   force =    -0.00001373   -0.00002275    0.00000361
     atom   18 type  2   force =     0.00000908    0.00001118   -0.00000431
     atom   19 type  3   force =    -0.00001486   -0.00001633    0.00000799
     atom   20 type  2   force =     0.00001165    0.00002743   -0.00001744
     atom   21 type  3   force =     0.00003719   -0.00002950   -0.00002634
     atom   22 type  2   force =    -0.00000798    0.00003808    0.00001217
     atom   23 type  1   force =    -0.00000901   -0.00001212   -0.00003163
     atom   24 type  2   force =    -0.00001458    0.00000180    0.00001285
     atom   25 type  1   force =     0.00000140    0.00000375   -0.00000423
     atom   26 type  2   force =     0.00000853    0.00001844   -0.00001254
     atom   27 type  3   force =     0.00000985   -0.00004023    0.00002357
     atom   28 type  2   force =    -0.00000565    0.00001265   -0.00000796
     atom   29 type  3   force =     0.00004201    0.00000831   -0.00000632
     atom   30 type  2   force =    -0.00001420    0.00000633    0.00001470
     atom   31 type  1   force =     0.00002312   -0.00002105    0.00000327
     atom   32 type  2   force =    -0.00000110    0.00000398    0.00000490
     atom   33 type  3   force =     0.00001948    0.00001718    0.00000057
     atom   34 type  2   force =    -0.00002277    0.00000162   -0.00000353
     atom   35 type  3   force =     0.00001348    0.00001017    0.00001390
     atom   36 type  2   force =    -0.00002654    0.00001721   -0.00001891
     atom   37 type  1   force =    -0.00003758    0.00000996    0.00001453
     atom   38 type  2   force =    -0.00000032    0.00000641    0.00006023
     atom   39 type  3   force =     0.00002045    0.00001160    0.00002084
     atom   40 type  2   force =     0.00000470   -0.00001073   -0.00005101
     atom   41 type  3   force =    -0.00000875    0.00001828    0.00001238
     atom   42 type  2   force =     0.00001492   -0.00002037    0.00000025
     atom   43 type  3   force =    -0.00002705   -0.00000530   -0.00000195
     atom   44 type  2   force =    -0.00005545   -0.00001225    0.00000186
     atom   45 type  1   force =    -0.00003858    0.00000791    0.00004193
     atom   46 type  2   force =     0.00000526   -0.00000421    0.00001838
     atom   47 type  3   force =    -0.00000352    0.00000534   -0.00002980
     atom   48 type  2   force =    -0.00001514    0.00001990   -0.00002035
     atom   49 type  1   force =     0.00002396    0.00001352    0.00001584
     atom   50 type  2   force =    -0.00000595    0.00002078    0.00000917
     atom   51 type  3   force =    -0.00000491   -0.00002318    0.00001777
     atom   52 type  2   force =     0.00000500    0.00003053    0.00000900
     atom   53 type  1   force =    -0.00000539   -0.00001848    0.00001902
     atom   54 type  2   force =    -0.00000701    0.00000327   -0.00001666
     atom   55 type  3   force =    -0.00001548    0.00000350   -0.00001138
     atom   56 type  2   force =     0.00001353   -0.00001544    0.00000024
     atom   57 type  1   force =    -0.00001862    0.00001167    0.00004665
     atom   58 type  2   force =     0.00001864   -0.00001240    0.00000957
     atom   59 type  3   force =    -0.00001740    0.00001061    0.00001610
     atom   60 type  2   force =    -0.00001994   -0.00001982   -0.00000496
     atom   61 type  3   force =    -0.00000920    0.00000786    0.00000241
     atom   62 type  2   force =     0.00000843   -0.00002425   -0.00001838
     atom   63 type  1   force =    -0.00002267    0.00000918    0.00002897
     atom   64 type  2   force =     0.00002282    0.00000360   -0.00000423
     atom   65 type  1   force =    -0.00003289    0.00000944    0.00001390
     atom   66 type  2   force =    -0.00001642   -0.00002923    0.00000171
     atom   67 type  1   force =    -0.00002427   -0.00001520   -0.00001818
     atom   68 type  2   force =    -0.00000736    0.00002886   -0.00002748
     atom   69 type  1   force =    -0.00003451    0.00001572   -0.00000314
     atom   70 type  2   force =     0.00000261    0.00001614    0.00001789
     atom   71 type  1   force =    -0.00003592    0.00000741    0.00000751
     atom   72 type  2   force =    -0.00003334    0.00002995    0.00000710
     atom   73 type  3   force =     0.00000011   -0.00000922    0.00002332
     atom   74 type  2   force =    -0.00003395   -0.00000125    0.00000602
     atom   75 type  3   force =    -0.00000754    0.00003591   -0.00001455
     atom   76 type  2   force =    -0.00000559   -0.00004336   -0.00002200
     atom   77 type  3   force =    -0.00000880    0.00002526    0.00001324
     atom   78 type  2   force =     0.00002152    0.00001026    0.00000264
     atom   79 type  1   force =    -0.00002923    0.00002543   -0.00000087
     atom   80 type  2   force =     0.00001713   -0.00000672   -0.00000045
     atom   81 type  1   force =    -0.00001496   -0.00004305    0.00000040
     atom   82 type  2   force =    -0.00001820    0.00002098   -0.00001511
     atom   83 type  1   force =    -0.00001791   -0.00004777   -0.00000062
     atom   84 type  2   force =     0.00002920    0.00002412   -0.00003499
     atom   85 type  1   force =     0.00000129   -0.00003512   -0.00001217
     atom   86 type  2   force =     0.00001049    0.00003430   -0.00001261
     atom   87 type  3   force =    -0.00003396   -0.00004195   -0.00000915
     atom   88 type  2   force =     0.00001864    0.00000074   -0.00005106
     atom   89 type  1   force =    -0.00002884    0.00000396    0.00000646
     atom   90 type  2   force =    -0.00001399   -0.00001969   -0.00001269
     atom   91 type  1   force =     0.00000547   -0.00002553   -0.00004374
     atom   92 type  2   force =    -0.00000038    0.00001473   -0.00004044
     atom   93 type  3   force =    -0.00003440   -0.00000617   -0.00002159
     atom   94 type  2   force =    -0.00000085   -0.00001221   -0.00001041
     atom   95 type  1   force =    -0.00002552   -0.00000320    0.00001219
     atom   96 type  2   force =     0.00000366   -0.00002485    0.00001954
     atom   97 type  1   force =    -0.00000102    0.00002300    0.00000317
     atom   98 type  2   force =    -0.00001812    0.00000639    0.00001910
     atom   99 type  1   force =     0.00001129    0.00003579   -0.00002176
     atom  100 type  2   force =    -0.00000471    0.00003346   -0.00000218
     atom  101 type  1   force =     0.00001444   -0.00002352    0.00001796
     atom  102 type  2   force =     0.00000887   -0.00000476   -0.00000043
     atom  103 type  3   force =     0.00000346    0.00002484    0.00000168
     atom  104 type  2   force =    -0.00001612   -0.00000084   -0.00002407
     atom  105 type  1   force =     0.00004262    0.00001402    0.00000403
     atom  106 type  2   force =    -0.00000184   -0.00001609    0.00003482
     atom  107 type  3   force =    -0.00001976   -0.00000837   -0.00000231
     atom  108 type  2   force =     0.00000614   -0.00003868   -0.00002950
     atom  109 type  3   force =     0.00002115    0.00000556   -0.00001095
     atom  110 type  2   force =    -0.00000027    0.00003015    0.00000473
     atom  111 type  3   force =     0.00000545   -0.00000009    0.00000741
     atom  112 type  2   force =    -0.00000214   -0.00001005   -0.00000235
     atom  113 type  3   force =     0.00002424   -0.00005124    0.00003719
     atom  114 type  2   force =    -0.00000782   -0.00000300   -0.00002634
     atom  115 type  1   force =     0.00003067    0.00001819    0.00000656
     atom  116 type  2   force =     0.00002910    0.00002208   -0.00001307
     atom  117 type  1   force =     0.00002004   -0.00003016    0.00001758
     atom  118 type  2   force =     0.00004012    0.00002874    0.00002469
     atom  119 type  1   force =     0.00004885   -0.00000885    0.00001054
     atom  120 type  2   force =     0.00000072    0.00005902   -0.00000285
     atom  121 type  1   force =     0.00002537   -0.00000867    0.00003884
     atom  122 type  2   force =    -0.00002150   -0.00000868    0.00001458
     atom  123 type  3   force =     0.00002625    0.00001568    0.00000656
     atom  124 type  2   force =     0.00000929   -0.00000929   -0.00002434
     atom  125 type  1   force =     0.00001969    0.00001922   -0.00000822
     atom  126 type  2   force =    -0.00001797   -0.00000862    0.00001580
     atom  127 type  1   force =     0.00002161    0.00000186   -0.00000060
     atom  128 type  2   force =    -0.00004160   -0.00003354    0.00001939

     Total force =     0.000415     Total SCF correction =     0.000453
     SCF correction compared to forces is large: reduce conv_thr to get better values


     Computing stress (Cartesian axis) and pressure

          total   stress  (Ry/bohr**3)                   (kbar)     P=        0.00
  -0.00000002   0.00000002  -0.00000001           -0.00        0.00       -0.00
   0.00000002   0.00000009   0.00000008            0.00        0.01        0.01
  -0.00000001   0.00000008   0.00000002           -0.00        0.01        0.00


     Writing all to output data dir ../output/TiAlN.save/
 
     init_run     :    158.96s CPU    162.55s WALL (       2 calls)
     electrons    :  42083.79s CPU  42711.88s WALL (      21 calls)
     update_pot   :    192.30s CPU    193.78s WALL (      19 calls)
     forces       :    748.50s CPU    760.47s WALL (      21 calls)
     stress       :   7802.24s CPU   7861.16s WALL (      21 calls)

     Called by init_run:
     wfcinit      :    137.59s CPU    140.18s WALL (       2 calls)
     potinit      :      5.99s CPU      6.13s WALL (       2 calls)
     hinit0       :     10.13s CPU     10.70s WALL (       2 calls)

     Called by electrons:
     c_bands      :  36240.67s CPU  36741.93s WALL (     240 calls)
     sum_band     :   5433.45s CPU   5514.69s WALL (     240 calls)
     v_of_rho     :    104.71s CPU    111.98s WALL (     250 calls)
     newd         :    100.34s CPU    123.72s WALL (     250 calls)
     PAW_pot      :     49.27s CPU     50.61s WALL (     269 calls)
     mix_rho      :    170.37s CPU    180.43s WALL (     240 calls)

     Called by c_bands:
     init_us_2    :    247.49s CPU    250.32s WALL (    1086 calls)
     init_us_2:cp :    247.48s CPU    250.31s WALL (    1086 calls)
     cegterg      :  34177.74s CPU  34666.44s WALL (     490 calls)

     Called by *egterg:
     cdiaghg      :    323.21s CPU    328.09s WALL (    2591 calls)
     h_psi        :  21610.03s CPU  21897.83s WALL (    2665 calls)
     s_psi        :   3757.43s CPU   3792.70s WALL (    2665 calls)
     g_psi        :     37.06s CPU     37.39s WALL (    2171 calls)

     Called by h_psi:
     h_psi:calbec :   3640.04s CPU   3673.11s WALL (    2665 calls)
     vloc_psi     :  14133.46s CPU  14312.03s WALL (    2665 calls)
     add_vuspsi   :   3761.94s CPU   3798.22s WALL (    2665 calls)

     General routines
     calbec       :   5761.60s CPU   5812.24s WALL (    3393 calls)
     fft          :     76.91s CPU     78.17s WALL (    3305 calls)
     ffts         :     95.95s CPU     96.88s WALL (    4972 calls)
     fftw         :  13192.96s CPU  13356.06s WALL ( 1419750 calls)
 
     Parallel routines
 
     PWSCF        :     14h12m CPU     14h24m WALL

 
   This run was terminated on:  13:24: 5   1May2026            

=------------------------------------------------------------------------------=
   JOB DONE.
=------------------------------------------------------------------------------=
