
     Program PWSCF v.7.1 starts on 30Apr2026 at 12:21:38 

     This program is part of the open-source Quantum ESPRESSO suite
     for quantum simulation of materials; please cite
         "P. Giannozzi et al., J. Phys.:Condens. Matter 21 395502 (2009);
         "P. Giannozzi et al., J. Phys.:Condens. Matter 29 465901 (2017);
         "P. Giannozzi et al., J. Chem. Phys. 152 154105 (2020);
          URL http://www.quantum-espresso.org", 
     in publications or presentations arising from this work. More details at
     http://www.quantum-espresso.org/quote

     Parallel version (MPI & OpenMP), running on      32 processor cores
     Number of MPI processes:                32
     Threads/MPI process:                     1

     MPI processes distributed on     1 nodes
     91644 MiB available memory on the printing compute node when the environment starts
 
     Reading input from TiAlN_relax-gamma.in

     Current dimensions of program PWSCF are:
     Max number of different atomic species (ntypx) = 10
     Max number of k-points (npk) = 150000
     Max angular momentum in pseudopotentials (lmaxx) =  4

     File ../output/TiAlN.update deleted, as requested

     File ../output/TiAlN.bfgs deleted, as requested
     file Al.pbe-n-kjpaw_psl.1.0.0.UPF: wavefunction(s)  3S 3P renormalized
     file N.pbe-n-kjpaw_psl.1.0.0.UPF: wavefunction(s)  2S renormalized
     file Ti.pbe-spn-kjpaw_psl.1.0.0.UPF: wavefunction(s)  3S 3P 3D renormalized

     gamma-point specific algorithms are used
 
     R & G space division:  proc/nbgrp/npool/nimage =      32
     Subspace diagonalization in iterative solution of the eigenvalue problem:
     one sub-group per band group will be used
     scalapack distributed-memory algorithm (size of sub-group:  5*  5 procs)

 
     Parallelization info
     --------------------
     sticks:   dense  smooth     PW     G-vecs:    dense   smooth      PW
     Min        1105    1105    275               137292   137292   17161
     Max        1108    1108    280               137298   137298   17172
     Sum       35395   35395   8839              4393453  4393453  549321
 
     Using Slab Decomposition
 


     bravais-lattice index     =            0
     lattice parameter (alat)  =      22.6626  a.u.
     unit-cell volume          =    8230.2713 (a.u.)^3
     number of atoms/cell      =          128
     number of atomic types    =            3
     number of electrons       =       800.00
     number of Kohn-Sham states=          480
     kinetic-energy cutoff     =     250.0000  Ry
     charge density cutoff     =    1000.0000  Ry
     scf convergence threshold =      1.0E-06
     mixing beta               =       0.2000
     number of iterations used =            8  local-TF  mixing
     energy convergence thresh.=      1.0E-05
     force convergence thresh. =      1.0E-04
     press convergence thresh. =      5.0E-01
     Exchange-correlation= SLA  PW   PBX  PBC
                           (   1   4   3   4   0   0   0)
     nstep                     =           50


     celldm(1)=  22.662599  celldm(2)=   0.000000  celldm(3)=   0.000000
     celldm(4)=   0.000000  celldm(5)=   0.000000  celldm(6)=   0.000000

     crystal axes: (cart. coord. in units of alat)
               a(1) = (   1.000000   0.000000   0.000000 )  
               a(2) = (   0.500000   0.866025   0.000000 )  
               a(3) = (   0.500000   0.288675   0.816497 )  

     reciprocal axes: (cart. coord. in units 2 pi/alat)
               b(1) = (  1.000000 -0.577350 -0.408248 )  
               b(2) = (  0.000000  1.154701 -0.408248 )  
               b(3) = (  0.000000  0.000000  1.224745 )  


     PseudoPot. # 1 for Al read from file:
     ../../pseudo/Al.pbe-n-kjpaw_psl.1.0.0.UPF
     MD5 check sum: 502b6b27b9c6270cab5dd1084b96fa6d
     Pseudo is Projector augmented-wave + core cor, Zval =  3.0
     Generated using &quot;atomic&quot; code by A. Dal Corso  v.6.3
     Shape of augmentation charge: PSQ
     Using radial grid of 1135 points,  6 beta functions with: 
                l(1) =   0
                l(2) =   0
                l(3) =   1
                l(4) =   1
                l(5) =   2
                l(6) =   2
     Q(r) pseudized with 0 coefficients 


     PseudoPot. # 2 for N  read from file:
     ../../pseudo/N.pbe-n-kjpaw_psl.1.0.0.UPF
     MD5 check sum: 14c48229446f9f2d411169a3abcbc3fa
     Pseudo is Projector augmented-wave + core cor, Zval =  5.0
     Generated using &quot;atomic&quot; code by A. Dal Corso  v.6.3
     Shape of augmentation charge: PSQ
     Using radial grid of 1085 points,  4 beta functions with: 
                l(1) =   0
                l(2) =   0
                l(3) =   1
                l(4) =   1
     Q(r) pseudized with 0 coefficients 


     PseudoPot. # 3 for Ti read from file:
     ../../pseudo/Ti.pbe-spn-kjpaw_psl.1.0.0.UPF
     MD5 check sum: 01f69b0d8ba4438b2e03ac6ea4af1c0b
     Pseudo is Projector augmented-wave + core cor, Zval = 12.0
     Generated using &quot;atomic&quot; code by A. Dal Corso  v.6.2.2
     Shape of augmentation charge: PSQ
     Using radial grid of 1177 points,  6 beta functions with: 
                l(1) =   0
                l(2) =   0
                l(3) =   1
                l(4) =   1
                l(5) =   2
                l(6) =   2
     Q(r) pseudized with 0 coefficients 


     atomic species   valence    mass     pseudopotential
        Al             3.00    26.98200     Al( 1.00)
        N              5.00    14.00700     N ( 1.00)
        Ti            12.00    47.86700     Ti( 1.00)

     No symmetry found



   Cartesian axes

     site n.     atom                  positions (alat units)
         1           Ti  tau(   1) = (   0.0000000   0.0000000   0.0000000  )
         2           N   tau(   2) = (   1.0000000   0.1443376   0.1020621  )
         3           Ti  tau(   3) = (   0.1250000   0.0721688   0.2041241  )
         4           N   tau(   4) = (   1.1250000   0.2165064   0.3061862  )
         5           Al  tau(   5) = (   0.2500000   0.1443376   0.4082483  )
         6           N   tau(   6) = (   1.2500000   0.2886751   0.5103104  )
         7           Ti  tau(   7) = (   0.3750000   0.2165064   0.6123724  )
         8           N   tau(   8) = (   1.3750000   0.3608439   0.7144345  )
         9           Ti  tau(   9) = (   0.1250000   0.2165064   0.0000000  )
        10           N   tau(  10) = (   1.1250000   0.3608439   0.1020621  )
        11           Ti  tau(  11) = (   0.2500000   0.2886751   0.2041241  )
        12           N   tau(  12) = (   1.2500000   0.4330127   0.3061862  )
        13           Al  tau(  13) = (   0.3750000   0.3608439   0.4082483  )
        14           N   tau(  14) = (   1.3750000   0.5051815   0.5103104  )
        15           Ti  tau(  15) = (   0.5000000   0.4330127   0.6123724  )
        16           N   tau(  16) = (   1.5000000   0.5773503   0.7144345  )
        17           Ti  tau(  17) = (   0.2500000   0.4330127   0.0000000  )
        18           N   tau(  18) = (   1.2500000   0.5773503   0.1020621  )
        19           Ti  tau(  19) = (   0.3750000   0.5051815   0.2041241  )
        20           N   tau(  20) = (   1.3750000   0.6495191   0.3061862  )
        21           Ti  tau(  21) = (   0.5000000   0.5773503   0.4082483  )
        22           N   tau(  22) = (   1.5000000   0.7216878   0.5103104  )
        23           Al  tau(  23) = (   1.6250000   0.6495191   0.6123724  )
        24           N   tau(  24) = (   1.6250000   0.7938566   0.7144345  )
        25           Al  tau(  25) = (   0.3750000   0.6495191   0.0000000  )
        26           N   tau(  26) = (   1.3750000   0.7938566   0.1020621  )
        27           Ti  tau(  27) = (   0.5000000   0.7216878   0.2041241  )
        28           N   tau(  28) = (   1.5000000   0.8660254   0.3061862  )
        29           Ti  tau(  29) = (   0.6250000   0.7938566   0.4082483  )
        30           N   tau(  30) = (   1.6250000   0.9381942   0.5103104  )
        31           Al  tau(  31) = (   1.7500000   0.8660254   0.6123724  )
        32           N   tau(  32) = (   1.7500000   1.0103630   0.7144345  )
        33           Ti  tau(  33) = (   0.2500000   0.0000000   0.0000000  )
        34           N   tau(  34) = (   0.2500000   0.1443376   0.1020621  )
        35           Ti  tau(  35) = (   0.3750000   0.0721688   0.2041241  )
        36           N   tau(  36) = (   0.3750000   0.2165064   0.3061862  )
        37           Al  tau(  37) = (   0.5000000   0.1443376   0.4082483  )
        38           N   tau(  38) = (   0.5000000   0.2886751   0.5103104  )
        39           Ti  tau(  39) = (   0.6250000   0.2165064   0.6123724  )
        40           N   tau(  40) = (   0.6250000   0.3608439   0.7144345  )
        41           Ti  tau(  41) = (   0.3750000   0.2165064   0.0000000  )
        42           N   tau(  42) = (   0.3750000   0.3608439   0.1020621  )
        43           Ti  tau(  43) = (   0.5000000   0.2886751   0.2041241  )
        44           N   tau(  44) = (   0.5000000   0.4330127   0.3061862  )
        45           Al  tau(  45) = (   0.6250000   0.3608439   0.4082483  )
        46           N   tau(  46) = (   0.6250000   0.5051815   0.5103104  )
        47           Ti  tau(  47) = (   0.7500000   0.4330127   0.6123724  )
        48           N   tau(  48) = (   0.7500000   0.5773503   0.7144345  )
        49           Al  tau(  49) = (   0.5000000   0.4330127   0.0000000  )
        50           N   tau(  50) = (   0.5000000   0.5773503   0.1020621  )
        51           Ti  tau(  51) = (   0.6250000   0.5051815   0.2041241  )
        52           N   tau(  52) = (   0.6250000   0.6495191   0.3061862  )
        53           Al  tau(  53) = (   0.7500000   0.5773503   0.4082483  )
        54           N   tau(  54) = (   0.7500000   0.7216878   0.5103104  )
        55           Ti  tau(  55) = (   0.8750000   0.6495191   0.6123724  )
        56           N   tau(  56) = (   0.8750000   0.7938566   0.7144345  )
        57           Al  tau(  57) = (   0.6250000   0.6495191   0.0000000  )
        58           N   tau(  58) = (   0.6250000   0.7938566   0.1020621  )
        59           Ti  tau(  59) = (   0.7500000   0.7216878   0.2041241  )
        60           N   tau(  60) = (   0.7500000   0.8660254   0.3061862  )
        61           Ti  tau(  61) = (   0.8750000   0.7938566   0.4082483  )
        62           N   tau(  62) = (   0.8750000   0.9381942   0.5103104  )
        63           Al  tau(  63) = (   1.0000000   0.8660254   0.6123724  )
        64           N   tau(  64) = (   1.0000000   1.0103630   0.7144345  )
        65           Al  tau(  65) = (   0.5000000   0.0000000   0.0000000  )
        66           N   tau(  66) = (   0.5000000   0.1443376   0.1020621  )
        67           Al  tau(  67) = (   0.6250000   0.0721688   0.2041241  )
        68           N   tau(  68) = (   0.6250000   0.2165064   0.3061862  )
        69           Al  tau(  69) = (   0.7500000   0.1443376   0.4082483  )
        70           N   tau(  70) = (   0.7500000   0.2886751   0.5103104  )
        71           Al  tau(  71) = (   0.8750000   0.2165064   0.6123724  )
        72           N   tau(  72) = (   0.8750000   0.3608439   0.7144345  )
        73           Ti  tau(  73) = (   0.6250000   0.2165064   0.0000000  )
        74           N   tau(  74) = (   0.6250000   0.3608439   0.1020621  )
        75           Ti  tau(  75) = (   0.7500000   0.2886751   0.2041241  )
        76           N   tau(  76) = (   0.7500000   0.4330127   0.3061862  )
        77           Ti  tau(  77) = (   0.8750000   0.3608439   0.4082483  )
        78           N   tau(  78) = (   0.8750000   0.5051815   0.5103104  )
        79           Al  tau(  79) = (   1.0000000   0.4330127   0.6123724  )
        80           N   tau(  80) = (   1.0000000   0.5773503   0.7144345  )
        81           Al  tau(  81) = (   0.7500000   0.4330127   0.0000000  )
        82           N   tau(  82) = (   0.7500000   0.5773503   0.1020621  )
        83           Al  tau(  83) = (   0.8750000   0.5051815   0.2041241  )
        84           N   tau(  84) = (   0.8750000   0.6495191   0.3061862  )
        85           Al  tau(  85) = (   1.0000000   0.5773503   0.4082483  )
        86           N   tau(  86) = (   1.0000000   0.7216878   0.5103104  )
        87           Ti  tau(  87) = (   1.1250000   0.6495191   0.6123724  )
        88           N   tau(  88) = (   1.1250000   0.7938566   0.7144345  )
        89           Al  tau(  89) = (   0.8750000   0.6495191   0.0000000  )
        90           N   tau(  90) = (   0.8750000   0.7938566   0.1020621  )
        91           Al  tau(  91) = (   1.0000000   0.7216878   0.2041241  )
        92           N   tau(  92) = (   1.0000000   0.8660254   0.3061862  )
        93           Ti  tau(  93) = (   1.1250000   0.7938566   0.4082483  )
        94           N   tau(  94) = (   1.1250000   0.9381942   0.5103104  )
        95           Al  tau(  95) = (   1.2500000   0.8660254   0.6123724  )
        96           N   tau(  96) = (   1.2500000   1.0103630   0.7144345  )
        97           Al  tau(  97) = (   0.7500000   0.0000000   0.0000000  )
        98           N   tau(  98) = (   0.7500000   0.1443376   0.1020621  )
        99           Al  tau(  99) = (   0.8750000   0.0721688   0.2041241  )
       100           N   tau( 100) = (   0.8750000   0.2165064   0.3061862  )
       101           Al  tau( 101) = (   1.0000000   0.1443376   0.4082483  )
       102           N   tau( 102) = (   1.0000000   0.2886751   0.5103104  )
       103           Ti  tau( 103) = (   1.6250000   1.0825318   0.6123724  )
       104           N   tau( 104) = (   1.1250000   0.3608439   0.7144345  )
       105           Al  tau( 105) = (   0.8750000   0.2165064   0.0000000  )
       106           N   tau( 106) = (   0.8750000   0.3608439   0.1020621  )
       107           Ti  tau( 107) = (   1.0000000   0.2886751   0.2041241  )
       108           N   tau( 108) = (   1.0000000   0.4330127   0.3061862  )
       109           Ti  tau( 109) = (   1.1250000   0.3608439   0.4082483  )
       110           N   tau( 110) = (   1.1250000   0.5051815   0.5103104  )
       111           Ti  tau( 111) = (   1.2500000   0.4330127   0.6123724  )
       112           N   tau( 112) = (   1.2500000   0.5773503   0.7144345  )
       113           Ti  tau( 113) = (   1.0000000   0.4330127   0.0000000  )
       114           N   tau( 114) = (   1.0000000   0.5773503   0.1020621  )
       115           Al  tau( 115) = (   1.1250000   0.5051815   0.2041241  )
       116           N   tau( 116) = (   1.1250000   0.6495191   0.3061862  )
       117           Al  tau( 117) = (   1.2500000   0.5773503   0.4082483  )
       118           N   tau( 118) = (   1.2500000   0.7216878   0.5103104  )
       119           Al  tau( 119) = (   1.3750000   0.6495191   0.6123724  )
       120           N   tau( 120) = (   1.3750000   0.7938566   0.7144345  )
       121           Al  tau( 121) = (   1.1250000   0.6495191   0.0000000  )
       122           N   tau( 122) = (   1.1250000   0.7938566   0.1020621  )
       123           Ti  tau( 123) = (   1.2500000   0.7216878   0.2041241  )
       124           N   tau( 124) = (   1.2500000   0.8660254   0.3061862  )
       125           Al  tau( 125) = (   1.3750000   0.7938566   0.4082483  )
       126           N   tau( 126) = (   1.3750000   0.9381942   0.5103104  )
       127           Al  tau( 127) = (   1.5000000   0.8660254   0.6123724  )
       128           N   tau( 128) = (   1.5000000   1.0103630   0.7144345  )

     number of k points=     1  Gaussian smearing, width (Ry)=  0.0050
                       cart. coord. in units 2pi/alat
        k(    1) = (   0.0000000   0.0000000   0.0000000), wk =   2.0000000

     Dense  grid:  2196727 G-vectors     FFT dimensions: ( 240, 240, 240)

     Estimated max dynamical RAM per process >     755.04 MB

     Estimated total dynamical RAM >      23.60 GB

     Initial potential from superposition of free atoms

     starting charge     799.8789, renormalised to     800.0000
     Starting wfcs are  704 randomized atomic wfcs
     Checking if some PAW data can be deallocated... 

     total cpu time spent up to now is       16.7 secs

     Self-consistent Calculation

     iteration #  1     ecut=   250.00 Ry     beta= 0.20
     Davidson diagonalization with overlap
     ethr =  1.00E-02,  avg # of iterations =  2.0

     total cpu time spent up to now is       43.4 secs

     total energy              =   -8964.47404622 Ry
     estimated scf accuracy    <      36.58689776 Ry

     iteration #  2     ecut=   250.00 Ry     beta= 0.20
     Davidson diagonalization with overlap
     ethr =  4.57E-03,  avg # of iterations =  1.0

     total cpu time spent up to now is       66.0 secs

     total energy              =   -8956.45874271 Ry
     estimated scf accuracy    <      19.72575412 Ry

     iteration #  3     ecut=   250.00 Ry     beta= 0.20
     Davidson diagonalization with overlap
     ethr =  2.47E-03,  avg # of iterations =  3.0

     total cpu time spent up to now is       94.8 secs

     total energy              =   -8960.93881326 Ry
     estimated scf accuracy    <       2.12474626 Ry

     iteration #  4     ecut=   250.00 Ry     beta= 0.20
     Davidson diagonalization with overlap
     ethr =  2.66E-04,  avg # of iterations =  4.0

     total cpu time spent up to now is      121.4 secs

     total energy              =   -8961.05818174 Ry
     estimated scf accuracy    <       1.36921077 Ry

     iteration #  5     ecut=   250.00 Ry     beta= 0.20
     Davidson diagonalization with overlap
     ethr =  1.71E-04,  avg # of iterations =  2.0

     total cpu time spent up to now is      145.2 secs

     total energy              =   -8960.86184941 Ry
     estimated scf accuracy    <       0.99722077 Ry

     iteration #  6     ecut=   250.00 Ry     beta= 0.20
     Davidson diagonalization with overlap
     ethr =  1.25E-04,  avg # of iterations =  2.0

     total cpu time spent up to now is      169.5 secs

     total energy              =   -8960.85513741 Ry
     estimated scf accuracy    <       0.34730913 Ry

     iteration #  7     ecut=   250.00 Ry     beta= 0.20
     Davidson diagonalization with overlap
     c_bands:  3 eigenvalues not converged
     ethr =  4.34E-05,  avg # of iterations = 20.0

     total cpu time spent up to now is      200.3 secs

     total energy              =   -8960.86366263 Ry
     estimated scf accuracy    <       0.09896961 Ry

     iteration #  8     ecut=   250.00 Ry     beta= 0.20
     Davidson diagonalization with overlap
     c_bands:  1 eigenvalues not converged
     ethr =  1.24E-05,  avg # of iterations = 20.0

     total cpu time spent up to now is      231.3 secs

     total energy              =   -8960.86848251 Ry
     estimated scf accuracy    <       0.04211014 Ry

     iteration #  9     ecut=   250.00 Ry     beta= 0.20
     Davidson diagonalization with overlap
     ethr =  5.26E-06,  avg # of iterations =  2.0

     total cpu time spent up to now is      256.2 secs

     total energy              =   -8960.86510245 Ry
     estimated scf accuracy    <       0.02763865 Ry

     iteration # 10     ecut=   250.00 Ry     beta= 0.20
     Davidson diagonalization with overlap
     ethr =  3.45E-06,  avg # of iterations =  2.0

     total cpu time spent up to now is      281.7 secs

     total energy              =   -8960.86645373 Ry
     estimated scf accuracy    <       0.00786528 Ry

     iteration # 11     ecut=   250.00 Ry     beta= 0.20
     Davidson diagonalization with overlap
     c_bands:  2 eigenvalues not converged
     ethr =  9.83E-07,  avg # of iterations = 20.0

     total cpu time spent up to now is      316.1 secs

     total energy              =   -8960.86688064 Ry
     estimated scf accuracy    <       0.00269607 Ry

     iteration # 12     ecut=   250.00 Ry     beta= 0.20
     Davidson diagonalization with overlap
     c_bands:  1 eigenvalues not converged
     ethr =  3.37E-07,  avg # of iterations = 20.0

     total cpu time spent up to now is      343.9 secs

     total energy              =   -8960.86678776 Ry
     estimated scf accuracy    <       0.00126990 Ry

     iteration # 13     ecut=   250.00 Ry     beta= 0.20
     Davidson diagonalization with overlap
     ethr =  1.59E-07,  avg # of iterations =  2.0

     total cpu time spent up to now is      368.8 secs

     total energy              =   -8960.86682614 Ry
     estimated scf accuracy    <       0.00046060 Ry

     iteration # 14     ecut=   250.00 Ry     beta= 0.20
     Davidson diagonalization with overlap
     ethr =  5.76E-08,  avg # of iterations =  2.0

     total cpu time spent up to now is      392.7 secs

     total energy              =   -8960.86678489 Ry
     estimated scf accuracy    <       0.00027404 Ry

     iteration # 15     ecut=   250.00 Ry     beta= 0.20
     Davidson diagonalization with overlap
     ethr =  3.43E-08,  avg # of iterations =  2.0

     total cpu time spent up to now is      417.2 secs

     total energy              =   -8960.86677754 Ry
     estimated scf accuracy    <       0.00010136 Ry

     iteration # 16     ecut=   250.00 Ry     beta= 0.20
     Davidson diagonalization with overlap
     ethr =  1.27E-08,  avg # of iterations =  6.0

     total cpu time spent up to now is      445.3 secs

     total energy              =   -8960.86678661 Ry
     estimated scf accuracy    <       0.00003110 Ry

     iteration # 17     ecut=   250.00 Ry     beta= 0.20
     Davidson diagonalization with overlap
     ethr =  3.89E-09,  avg # of iterations =  6.0

     total cpu time spent up to now is      473.1 secs

     total energy              =   -8960.86678929 Ry
     estimated scf accuracy    <       0.00001286 Ry

     iteration # 18     ecut=   250.00 Ry     beta= 0.20
     Davidson diagonalization with overlap
     ethr =  1.61E-09,  avg # of iterations =  2.0

     total cpu time spent up to now is      497.4 secs

     total energy              =   -8960.86678875 Ry
     estimated scf accuracy    <       0.00000545 Ry

     iteration # 19     ecut=   250.00 Ry     beta= 0.20
     Davidson diagonalization with overlap
     ethr =  6.82E-10,  avg # of iterations =  6.0

     total cpu time spent up to now is      523.6 secs

     total energy              =   -8960.86678897 Ry
     estimated scf accuracy    <       0.00000178 Ry

     iteration # 20     ecut=   250.00 Ry     beta= 0.20
     Davidson diagonalization with overlap
     ethr =  2.23E-10,  avg # of iterations =  7.0

     total cpu time spent up to now is      550.5 secs

     End of self-consistent calculation

          k = 0.0000 0.0000 0.0000 (274661 PWs)   bands (ev):

   -43.7405 -43.5856 -43.5723 -43.5592 -43.5564 -43.5400 -43.5381 -43.5216
   -43.5109 -43.5016 -43.4945 -43.4900 -43.4747 -43.4732 -43.4715 -43.4355
   -43.4176 -43.3878 -43.3687 -43.3679 -43.3613 -43.3516 -43.3406 -43.3306
   -43.3183 -43.3032 -43.2794 -43.2753 -43.2260 -43.2069 -43.1747 -43.1383
   -20.1441 -20.1074 -20.0818 -20.0795 -20.0510 -20.0308 -20.0120 -20.0102
   -19.9868 -19.9817 -19.9709 -19.9671 -19.9504 -19.9464 -19.9383 -19.9355
   -19.9339 -19.9208 -19.9175 -19.9126 -19.9105 -19.9041 -19.9025 -19.8993
   -19.8945 -19.8883 -19.8829 -19.8750 -19.8629 -19.8572 -19.8542 -19.8513
   -19.8442 -19.8426 -19.8352 -19.8334 -19.8234 -19.8133 -19.8031 -19.7976
   -19.7874 -19.7861 -19.7828 -19.7800 -19.7752 -19.7724 -19.7683 -19.7587
   -19.7531 -19.7466 -19.7435 -19.7364 -19.7226 -19.7171 -19.7112 -19.7071
   -19.7023 -19.6977 -19.6913 -19.6880 -19.6718 -19.6673 -19.6619 -19.6546
   -19.6508 -19.6453 -19.6388 -19.6261 -19.6187 -19.6159 -19.6122 -19.6086
   -19.6022 -19.5981 -19.5927 -19.5838 -19.5809 -19.5742 -19.5689 -19.5634
   -19.5578 -19.5398 -19.5384 -19.5355 -19.5208 -19.5121 -19.4940 -19.4888
   -19.4824 -19.4632 -19.4618 -19.4447 -19.4157 -19.4065 -19.3961 -19.3653
    -3.6339  -2.7576  -2.7168  -2.6763  -2.6280  -2.5829  -2.5111  -2.4577
    -2.3816  -2.3552  -2.2652  -2.2019  -2.1353  -2.0926  -1.9770  -1.5042
    -1.4834  -1.4541  -1.4297  -1.4136  -1.3934  -1.3733  -1.3317  -1.3021
    -1.2717  -1.2578  -1.2277  -1.2073  -1.1792  -1.1696  -1.1621  -1.1567
    -1.1250  -1.0990  -1.0964  -1.0797  -1.0720  -1.0514  -1.0354  -1.0258
    -0.9914  -0.9837  -0.9640  -0.9562  -0.9181  -0.8986  -0.8915  -0.8669
    -0.8554  -0.8464  -0.8374  -0.8032  -0.7921  -0.7611  -0.7307  -0.7192
    -0.7027  -0.6799  -0.6324  -0.6214  -0.6027  -0.5819  -0.5694  -0.5455
     4.8173   4.9550   5.2583   5.3625   5.9103   5.9690   5.9720   6.0404
     6.0814   6.0970   6.1363   6.2016   6.2148   6.2585   6.3432   6.3898
     6.4241   6.4711   6.4828   6.5541   6.5630   6.5945   6.6359   6.6826
     6.7185   6.7855   6.8335   6.8973   6.9527   6.9853   7.0153   7.0891
     7.1483   7.1715   7.2299   7.3028   7.3339   7.3758   7.4068   7.4557
     7.5125   7.5597   7.6332   7.6421   7.6860   7.7251   7.7485   7.7886
     7.8607   7.8958   7.9417   7.9709   8.0017   8.0395   8.0746   8.0866
     8.1067   8.1331   8.1842   8.2187   8.2924   8.3460   8.3549   8.3699
     8.3866   8.4069   8.4301   8.4596   8.4839   8.5330   8.5469   8.5645
     8.5735   8.5819   8.6342   8.6684   8.6823   8.7081   8.7221   8.7419
     8.7756   8.8086   8.8225   8.8724   8.8760   8.9312   8.9437   8.9703
     8.9867   9.0029   9.0120   9.0413   9.0599   9.0678   9.0862   9.1168
     9.1574   9.1594   9.1808   9.2043   9.2216   9.2311   9.2636   9.2935
     9.3222   9.3481   9.3600   9.3701   9.4123   9.4332   9.4500   9.4568
     9.4720   9.5094   9.5464   9.5673   9.5785   9.6380   9.7037   9.7274
     9.7513   9.7653   9.8219   9.8262   9.8740   9.8954   9.9239   9.9719
    10.0043  10.0522  10.0772  10.0831  10.0950  10.1176  10.1524  10.1863
    10.2375  10.2424  10.2605  10.2639  10.3196  10.3533  10.3702  10.3828
    10.4014  10.4334  10.4557  10.4811  10.4848  10.5364  10.5477  10.5751
    10.6149  10.6407  10.6611  10.6710  10.6979  10.7134  10.7345  10.7689
    10.8052  10.8449  10.8699  10.9118  10.9187  10.9373  10.9505  10.9887
    11.0092  11.0185  11.0334  11.0504  11.0751  11.0929  11.1063  11.1259
    11.1337  11.1501  11.1832  11.1914  11.2139  11.2506  11.2551  11.2700
    11.3026  11.3219  11.3501  11.3605  11.3803  12.2661  12.2709  12.2851
    12.6500  12.6719  12.7174  13.3627  13.4232  13.5450  13.5557  13.5804
    13.8795  14.2041  14.3725  14.3901  14.4055  14.4493  14.4850  14.5161
    14.5446  14.5529  14.5837  14.6134  14.6406  14.6993  14.7163  14.7490
    14.7849  14.8116  14.8171  14.8323  14.8919  14.9191  14.9311  15.0038
    15.0180  15.0420  15.0809  15.1329  15.2165  15.2391  15.3098  15.3250
    15.3370  15.3539  15.3902  15.4074  15.4234  15.4276  15.4875  15.5054
    15.5151  15.5405  15.5975  15.6110  15.6718  15.6764  15.7106  15.7325
    15.7628  15.7977  15.8150  15.8548  15.8927  15.9084  15.9226  15.9593
    15.9655  15.9865  16.0103  16.0140  16.0487  16.0854  16.0979  16.1363
    16.1405  16.1543  16.1930  16.2050  16.2307  16.2378  16.2416  16.2655
    16.2699  16.2767  16.2897  16.3039  16.3193  16.3332  16.3369  16.3594
    16.3682  16.3870  16.4016  16.4219  16.4322  16.4680  16.4846  16.5042

     the Fermi energy is    14.5229 ev

!    total energy              =   -8960.86678870 Ry
     total all-electron energy =    -77206.091959 Ry
     estimated scf accuracy    <       0.00000082 Ry
     smearing contrib. (-TS)   =      -0.01272964 Ry
     internal energy E=F+TS    =   -8960.85405906 Ry

     The total energy is F=E-TS. E is the sum of the following terms:
     one-electron contribution =   -1837.82113354 Ry
     hartree contribution      =    1416.62930287 Ry
     xc contribution           =   -1053.07551422 Ry
     ewald contribution        =   -3776.99859309 Ry
     one-center paw contrib.   =   -3709.58812108 Ry

     convergence has been achieved in  20 iterations

     Forces acting on atoms (cartesian axes, Ry/au):

     atom    1 type  3   force =     0.04823409    0.02967008   -0.00878638
     atom    2 type  2   force =    -0.07363931    0.00600773   -0.00033859
     atom    3 type  3   force =     0.04746780   -0.02097593   -0.01201754
     atom    4 type  2   force =    -0.00875571   -0.03621018    0.06191258
     atom    5 type  1   force =    -0.00241163    0.00590780   -0.00370956
     atom    6 type  2   force =     0.04306668   -0.03013043   -0.06538701
     atom    7 type  3   force =    -0.03061235    0.05143181   -0.00799734
     atom    8 type  2   force =    -0.03300279    0.01097324    0.05704494
     atom    9 type  3   force =     0.02977071   -0.04120136   -0.00492185
     atom   10 type  2   force =     0.00074555    0.04350968    0.02690225
     atom   11 type  3   force =    -0.02424096   -0.01090226   -0.04948236
     atom   12 type  2   force =     0.00215969    0.04200186    0.02048934
     atom   13 type  1   force =    -0.00133768   -0.00728444    0.00672673
     atom   14 type  2   force =    -0.02945054    0.01360136   -0.02996484
     atom   15 type  3   force =     0.02313790   -0.03154736    0.04858002
     atom   16 type  2   force =    -0.03285008    0.03405075   -0.03177172
     atom   17 type  3   force =     0.00074218   -0.04413017    0.05265838
     atom   18 type  2   force =    -0.04376143    0.02026271   -0.03851256
     atom   19 type  3   force =    -0.00503526   -0.00196048    0.00077234
     atom   20 type  2   force =    -0.03269385    0.02185920    0.06027286
     atom   21 type  3   force =     0.01101290    0.02195280   -0.07692002
     atom   22 type  2   force =    -0.03040325    0.01746217    0.06554457
     atom   23 type  1   force =     0.00211455    0.00237869   -0.00059940
     atom   24 type  2   force =    -0.00186496    0.04048849   -0.05616371
     atom   25 type  1   force =     0.00046559    0.00128061   -0.00040589
     atom   26 type  2   force =    -0.04354975    0.02002534   -0.03924438
     atom   27 type  3   force =     0.03409438   -0.00978909    0.02788231
     atom   28 type  2   force =    -0.07394306    0.03946254    0.03134821
     atom   29 type  3   force =     0.03006183   -0.03604156   -0.09228619
     atom   30 type  2   force =     0.00300072    0.00179458    0.00940364
     atom   31 type  1   force =    -0.00405563    0.00043354    0.00114316
     atom   32 type  2   force =    -0.00617590   -0.04436815    0.05474599
     atom   33 type  3   force =    -0.05724494    0.05457716    0.01350338
     atom   34 type  2   force =     0.01212496    0.00615397    0.00197098
     atom   35 type  3   force =    -0.05325956   -0.00973616   -0.00802048
     atom   36 type  2   force =     0.00228030   -0.00193436    0.07760727
     atom   37 type  1   force =    -0.00140978    0.00651146    0.00047682
     atom   38 type  2   force =     0.00569930   -0.00208808   -0.08164999
     atom   39 type  3   force =    -0.00431803    0.06511240    0.02535642
     atom   40 type  2   force =    -0.00963918   -0.00505541   -0.00977891
     atom   41 type  3   force =    -0.02054961    0.01940391    0.01870784
     atom   42 type  2   force =     0.04867454    0.01401556   -0.03303097
     atom   43 type  3   force =    -0.01812286    0.02693441   -0.03806787
     atom   44 type  2   force =     0.00639795   -0.04873018    0.06090372
     atom   45 type  1   force =    -0.00820855    0.00082033    0.00139376
     atom   46 type  2   force =     0.03867677    0.02122148   -0.03162060
     atom   47 type  3   force =    -0.03209584   -0.01046709    0.05226336
     atom   48 type  2   force =    -0.03826467    0.03341878   -0.02983289
     atom   49 type  1   force =     0.00386444   -0.00208207    0.00903269
     atom   50 type  2   force =    -0.00822115   -0.00375752   -0.08330124
     atom   51 type  3   force =    -0.00022341    0.02450700    0.03251474
     atom   52 type  2   force =     0.03608733   -0.02454731    0.03565580
     atom   53 type  1   force =    -0.01020426   -0.00321490   -0.00875862
     atom   54 type  2   force =    -0.03761558   -0.01828552    0.03785279
     atom   55 type  3   force =     0.03501259   -0.02824174   -0.00166483
     atom   56 type  2   force =     0.02474057    0.04967267   -0.00236473
     atom   57 type  1   force =    -0.00107825   -0.00038797    0.00378241
     atom   58 type  2   force =    -0.00020774   -0.04394403   -0.03415315
     atom   59 type  3   force =    -0.07339283    0.03249216    0.03463713
     atom   60 type  2   force =     0.00836820    0.04651908    0.03746665
     atom   61 type  3   force =    -0.00905214    0.00815641   -0.02178636
     atom   62 type  2   force =     0.00510739   -0.00903062    0.00314113
     atom   63 type  1   force =    -0.00079796   -0.00144540    0.00199378
     atom   64 type  2   force =     0.00216119   -0.07243468    0.02162257
     atom   65 type  1   force =     0.00420485    0.00304348   -0.00076504
     atom   66 type  2   force =     0.03402457   -0.05425770    0.02115963
     atom   67 type  1   force =    -0.00372815   -0.00364467   -0.00139294
     atom   68 type  2   force =     0.00455314   -0.03335638    0.04813802
     atom   69 type  1   force =     0.00389339   -0.00184289   -0.00433475
     atom   70 type  2   force =    -0.00426324   -0.03748032   -0.03267017
     atom   71 type  1   force =     0.00814970   -0.00014316   -0.00012968
     atom   72 type  2   force =     0.06816776   -0.03655703   -0.03315301
     atom   73 type  3   force =    -0.01313672    0.01399363   -0.03293757
     atom   74 type  2   force =    -0.00909542    0.03882616   -0.05154861
     atom   75 type  3   force =     0.00452161    0.03187841   -0.00427094
     atom   76 type  2   force =    -0.00046628    0.03359591    0.03098451
     atom   77 type  3   force =    -0.00079744   -0.00208860   -0.00050534
     atom   78 type  2   force =     0.03429825    0.02225350   -0.02567134
     atom   79 type  1   force =     0.00338659   -0.00059070    0.00411935
     atom   80 type  2   force =    -0.00433746   -0.00171719    0.00961820
     atom   81 type  1   force =    -0.00045980   -0.00442154    0.00157580
     atom   82 type  2   force =     0.03972781   -0.03185966   -0.05924030
     atom   83 type  1   force =    -0.00032923    0.00437445    0.00151422
     atom   84 type  2   force =     0.03667635   -0.05710462    0.00484483
     atom   85 type  1   force =     0.00539069   -0.00090026    0.00070918
     atom   86 type  2   force =    -0.01063632    0.01163490    0.00044187
     atom   87 type  3   force =    -0.01968145   -0.04494620   -0.01038157
     atom   88 type  2   force =    -0.00262496    0.03790229    0.02229895
     atom   89 type  1   force =    -0.00501061    0.00509284   -0.00359085
     atom   90 type  2   force =     0.06904141   -0.03762756   -0.01981344
     atom   91 type  1   force =    -0.00093022   -0.00102665   -0.00594754
     atom   92 type  2   force =     0.04108432    0.02457194   -0.02814736
     atom   93 type  3   force =    -0.02661487   -0.02592224    0.00720248
     atom   94 type  2   force =    -0.00383345   -0.00111646   -0.00014334
     atom   95 type  1   force =     0.00655032    0.00184501    0.00692415
     atom   96 type  2   force =     0.03418915   -0.06364515   -0.00953649
     atom   97 type  1   force =     0.00550397    0.00414004    0.00098934
     atom   98 type  2   force =     0.03090633   -0.05742416    0.00604644
     atom   99 type  1   force =    -0.00063577   -0.00103589    0.00439662
     atom  100 type  2   force =     0.00478369   -0.06834226    0.02782202
     atom  101 type  1   force =    -0.00053688   -0.00169935   -0.00803471
     atom  102 type  2   force =    -0.04041946   -0.02408302    0.03377969
     atom  103 type  3   force =     0.03322039    0.07070020   -0.02550563
     atom  104 type  2   force =    -0.03515311   -0.02812052    0.02290606
     atom  105 type  1   force =    -0.00629923   -0.00353950   -0.00977877
     atom  106 type  2   force =    -0.03853854    0.02504215   -0.02371273
     atom  107 type  3   force =     0.03078665   -0.00124768   -0.02451615
     atom  108 type  2   force =    -0.00969489    0.06427925   -0.04095078
     atom  109 type  3   force =     0.02130631   -0.01740785    0.03784108
     atom  110 type  2   force =    -0.04815445    0.02422969   -0.02575531
     atom  111 type  3   force =    -0.01640987   -0.01993901    0.00753501
     atom  112 type  2   force =     0.08218277    0.05074954    0.03816419
     atom  113 type  3   force =     0.02900809   -0.05429044    0.02684618
     atom  114 type  2   force =     0.00449071    0.02952406    0.02162122
     atom  115 type  1   force =    -0.00052837    0.00308759    0.00437515
     atom  116 type  2   force =    -0.03789384   -0.05370739    0.00024278
     atom  117 type  1   force =     0.00637229   -0.00430864   -0.00288138
     atom  118 type  2   force =     0.06879426    0.00587627   -0.00775632
     atom  119 type  1   force =    -0.00383006   -0.00008412    0.00354203
     atom  120 type  2   force =    -0.02698702    0.01897110   -0.02132610
     atom  121 type  1   force =     0.00486970    0.00386887   -0.00121925
     atom  122 type  2   force =    -0.03348177    0.01872263   -0.02337191
     atom  123 type  3   force =     0.04644981   -0.03770493    0.02779681
     atom  124 type  2   force =     0.02880719    0.06152693   -0.00397201
     atom  125 type  1   force =     0.00118824   -0.00244081   -0.00395899
     atom  126 type  2   force =    -0.00174833    0.00447339    0.00188544
     atom  127 type  1   force =    -0.00182279   -0.00339219    0.00149674
     atom  128 type  2   force =    -0.03202995   -0.02933479    0.02733175

     Total force =     0.588549     Total SCF correction =     0.003748


     Computing stress (Cartesian axis) and pressure

          total   stress  (Ry/bohr**3)                   (kbar)     P=      -87.48
  -0.00062849   0.00000873  -0.00001577          -92.45        1.28       -2.32
   0.00000873  -0.00056898   0.00000011            1.28      -83.70        0.02
  -0.00001577   0.00000011  -0.00058659           -2.32        0.02      -86.29


     BFGS Geometry Optimization
     Energy error            =      0.0E+00 Ry
     Gradient error          =      9.2E-02 Ry/Bohr
     Cell gradient error     =      9.2E+01 kbar

     number of scf cycles    =   1
     number of bfgs steps    =   0

     enthalpy           new  =   -8960.8667887037 Ry

     new trust radius        =       0.2852016622 bohr
     new conv_thr            =       0.0000010000 Ry

     new unit-cell volume =   7868.61343 a.u.^3 (  1166.00821 Ang^3 )
     density =      4.68767 g/cm^3

CELL_PARAMETERS (angstrom)
  11.804102158   0.002616312  -0.004726705
   5.904316871  10.239410699  -0.002333810
   5.898947004   3.414036856   9.645912426

ATOMIC_POSITIONS (angstrom)
Ti            0.0251285969        0.0154829479       -0.0045913807
N            11.7656421665        1.7120956470        1.2011502830
Ti            1.4994610436        0.8425725822        2.4052020246
N            13.2741565097        2.5435894745        3.6450736118
Al            2.9482188286        1.7100999483        4.8210224951
N            14.7759128608        3.4002759810        5.9901647463
Ti            4.4082730283        2.5873534965        7.2302708307
N            16.2110070731        4.2752183221        8.4654968818
Ti            1.4915819413        2.5383634176       -0.0031560596
N            13.2804643312        4.2915198403        1.2147552068
Ti            2.9381988182        3.4076718551        2.3850987496
N            14.7559388190        5.1442426539        3.6228892160
Al            4.4248537267        4.2630710336        4.8258804601
N            16.2142182243        5.9829330206        6.0080662050
Ti            5.9123273630        5.1039263832        7.2591764391
N            17.6871870184        6.8471092613        8.4186029172
Ti            2.9525289303        5.0966850181        0.0262898482
N            14.7333724846        6.8392404964        1.1800726092
Ti            4.4242721178        5.9721913007        2.4107149606
N            16.2138535062        7.6935839460        3.6430568057
Ti            5.9073867220        6.8381766090        4.7816796372
N            17.6897817366        8.5447997215        6.0572831877
Al           19.1815726389        7.6840903886        7.2282277330
N            19.1794110618        9.4103237246        8.4052946122
Al            4.4284803967        7.6802261069       -0.0019620893
N            16.2095620814        9.3989693701        1.1791075319
Ti            5.9207259501        8.5279647373        2.4242589341
N            17.6684556119       10.2626145966        3.6274001778
Ti            7.3933843262        9.3677787067        4.7730799445
N            19.1832697355       11.0964831736        6.0274199118
Al           20.6544374476       10.2429276699        7.2285541661
N            20.6532119451       11.9259106118        8.4625421307
Ti            2.9212122717        0.0291176594        0.0058712359
N             2.9572364953        1.7102196051        1.2058816703
Ti            4.3980219243        0.8490782640        2.4061255102
N             4.4268288175        2.5595085171        3.6567998653
Al            5.8997653934        1.7110690464        4.8220234611
N             5.9033795986        3.4129376980        5.9852378190
Ti            7.3729889192        2.5951471359        7.2464749118
N             7.3701117751        4.2648973458        8.4341939214
Ti            4.4163995697        2.5706264557        0.0079937716
N             4.4523612296        4.2741774445        1.1870399958
Ti            5.8924130358        3.4280641493        2.3898675644
N             5.9050508479        5.0949506078        3.6475059705
Al            7.3723025355        4.2679521611        4.8219195300
N             7.3966278064        5.9849536848        6.0107336973
Ti            8.8345853748        5.1155706125        7.2599268711
N             8.8312896667        6.8448167434        8.4231600097
Al            5.9051946951        5.1192737734        0.0023604094
N             5.8988140417        6.8247521505        1.1602566093
Ti            7.3778004073        5.9866527387        2.4260833465
N             7.3966022162        7.6674216649        3.6337516643
Al            8.8473439141        6.8256996131        4.8160428626
N             8.8329501356        8.5241888380        6.0463907033
Ti           10.3456280684        7.6661588073        7.2312103244
N            10.3401821101        9.4131555715        8.4368858070
Al            7.3787007384        7.6800095985       -0.0009595960
N             7.3790522552        9.3636425356        1.1852980762
Ti            8.8157688865        8.5506624275        2.4266218154
N             8.8582513975       10.2643429171        3.6341183091
Ti           10.3240272586        9.3914842422        4.8086663035
N            10.3312904616       11.0888742101        6.0276991039
Al           11.8030572361       10.2399856598        7.2325420400
N            11.8044814722       11.9093083880        8.4488142676
Al            5.9042417397        0.0028962685       -0.0027631303
N             5.9196577468        1.6793624960        1.2147006256
Al            7.3748458481        0.8529156963        2.4083892224
N             7.3790407166        2.5437715222        3.6402519020
Al            8.8535531962        1.7073656856        4.8183318335
N             8.8492017226        3.3951283437        6.0095970783
Al           10.3305062191        2.5617620570        7.2320016508
N            10.3616652836        4.2491275533        8.4208083173
Ti            7.3712963531        2.5684590384       -0.0201182504
N             7.3733032789        4.2877672693        1.1762149923
Ti            8.8552267575        3.4312999292        2.4063034664
N             8.8525168092        5.1385492436        3.6307254619
Ti           10.3271883044        4.2670896473        4.8197460788
N            10.3453716149        5.9861456230        6.0126549813
Al           11.8041035696        5.1213807324        7.2336347058
N            11.7999743406        6.8271461203        8.4425416728
Al            8.8539691825        5.1187069608       -0.0027085192
N             8.8748061431        6.8107523178        1.1716106756
Al           10.3287749720        5.9768046168        2.4087374619
N            10.3479372169        7.6510922457        3.6165044556
Al           11.8064905760        6.8275629364        4.8197946065
N            11.7980394180        8.5404539584        6.0256967554
Ti           13.2681654121        7.6580926779        7.2254949699
N            13.2769474648        9.4076665074        8.4485698823
Al           10.3276802293        7.6835222759       -0.0059849895
N            10.3661448281        9.3675996151        1.1915789356
Al           11.8045420897        8.5338397280        2.4042634399
N            11.8263286942       10.2535519494        3.5987175173
Ti           13.2658950470        9.3743592107        4.8226035109
N            13.2776606490       11.0936556691        6.0248067278
Al           14.7579095744       10.2423570380        7.2339296131
N            14.7721966934       11.9145511741        8.4313790619
Al            8.8559437039        0.0041225211       -0.0030303125
N             8.8690618955        1.6783644065        1.2056393218
Al           10.3274811866        0.8549310094        2.4102256819
N            10.3301865352        2.5261752169        3.6284770164
Al           11.8022719614        1.7080941228        4.8152218593
N            11.7813825213        3.4027670487        6.0430710496
Ti           19.1989204873       12.8387851222        7.2152495873
N            13.2588641178        4.2541706911        8.4488783557
Al           10.3258764315        2.5599677846       -0.0092259905
N            10.3089856028        4.2812275634        1.1895535396
Ti           11.8199331731        3.4146767881        2.3945600640
N            11.7987540594        5.1552081093        3.5920374768
Ti           13.2897170978        4.2597550503        4.8385542430
N            13.2534508670        5.9878210595        6.0114467217
Ti           14.7448149269        5.1119394855        7.2342381117
N            14.7960651415        6.8551794922        8.4562263981
Ti           11.8203324201        5.0933503716        0.0092799884
N            11.8074682101        6.8434232648        1.2125990114
Al           13.2796960405        5.9767873822        2.4090475642
N            13.2601232797        7.6535098735        3.6129387520
Al           14.7580277498        6.8264391389        4.8167405409
N            14.7904384303        8.5381132027        6.0202238298
Al           16.2274496260        7.6821509077        7.2315700601
N            16.2152906268        9.3984422538        8.4246464182
Al           13.2838514176        7.6835390115       -0.0059321325
N            13.2637771189        9.3976369192        1.1885632773
Ti           14.7802348450        8.5153661040        2.4206667047
N            14.7709587596       10.2734822158        3.6101438987
Al           16.2314072304        9.3872655692        4.8155962895
N            16.2297724710       11.0972259352        6.0246824619
Al           17.7045743965       10.2402781547        7.2299197325
N            17.6887274465       11.9330956590        8.4494349745



     Writing config-only to output data dir ../output/TiAlN.save/
     NEW-OLD atomic charge density approx. for the potential
     extrapolated charge  763.23589, renormalised to  800.00000

     total cpu time spent up to now is      646.2 secs

     Self-consistent Calculation

     iteration #  1     ecut=   250.00 Ry     beta= 0.20
     Davidson diagonalization with overlap
     c_bands:  1 eigenvalues not converged
     ethr =  1.00E-06,  avg # of iterations = 40.0

     total cpu time spent up to now is      836.3 secs

     total energy              =   -8907.79446675 Ry
     estimated scf accuracy    <     477.88961110 Ry

     iteration #  2     ecut=   250.00 Ry     beta= 0.20
     Davidson diagonalization with overlap
     ethr =  1.00E-02,  avg # of iterations =  4.0

     total cpu time spent up to now is      866.6 secs

     total energy              =   -8962.53764002 Ry
     estimated scf accuracy    <      20.88146560 Ry

     iteration #  3     ecut=   250.00 Ry     beta= 0.20
     Davidson diagonalization with overlap
     ethr =  2.61E-03,  avg # of iterations =  2.0

     total cpu time spent up to now is      890.5 secs

     total energy              =   -8962.09002925 Ry
     estimated scf accuracy    <      14.25561017 Ry

     iteration #  4     ecut=   250.00 Ry     beta= 0.20
     Davidson diagonalization with overlap
     ethr =  1.78E-03,  avg # of iterations =  2.0

     total cpu time spent up to now is      914.4 secs

     total energy              =   -8961.67393821 Ry
     estimated scf accuracy    <       8.40421072 Ry

     iteration #  5     ecut=   250.00 Ry     beta= 0.20
     Davidson diagonalization with overlap
     ethr =  1.05E-03,  avg # of iterations =  1.0

     total cpu time spent up to now is      936.9 secs

     total energy              =   -8961.58418634 Ry
     estimated scf accuracy    <       4.55406409 Ry

     iteration #  6     ecut=   250.00 Ry     beta= 0.20
     Davidson diagonalization with overlap
     ethr =  5.69E-04,  avg # of iterations =  2.0

     total cpu time spent up to now is      960.9 secs

     total energy              =   -8961.43546133 Ry
     estimated scf accuracy    <       3.49411357 Ry

     iteration #  7     ecut=   250.00 Ry     beta= 0.20
     Davidson diagonalization with overlap
     ethr =  4.37E-04,  avg # of iterations =  2.0

     total cpu time spent up to now is      984.7 secs

     total energy              =   -8961.39986385 Ry
     estimated scf accuracy    <       2.30926092 Ry

     iteration #  8     ecut=   250.00 Ry     beta= 0.20
     Davidson diagonalization with overlap
     ethr =  2.89E-04,  avg # of iterations =  2.0

     total cpu time spent up to now is     1008.5 secs

     total energy              =   -8961.36536439 Ry
     estimated scf accuracy    <       1.84333910 Ry

     iteration #  9     ecut=   250.00 Ry     beta= 0.20
     Davidson diagonalization with overlap
     ethr =  2.30E-04,  avg # of iterations =  2.0

     total cpu time spent up to now is     1032.5 secs

     total energy              =   -8961.33305656 Ry
     estimated scf accuracy    <       1.46029598 Ry

     iteration # 10     ecut=   250.00 Ry     beta= 0.20
     Davidson diagonalization with overlap
     ethr =  1.83E-04,  avg # of iterations =  2.0

     total cpu time spent up to now is     1056.4 secs

     total energy              =   -8961.10088414 Ry
     estimated scf accuracy    <       1.07179065 Ry

     iteration # 11     ecut=   250.00 Ry     beta= 0.20
     Davidson diagonalization with overlap
     ethr =  1.34E-04,  avg # of iterations = 15.0

     total cpu time spent up to now is     1087.9 secs

     total energy              =   -8961.24145074 Ry
     estimated scf accuracy    <       0.05609240 Ry

     iteration # 12     ecut=   250.00 Ry     beta= 0.20
     Davidson diagonalization with overlap
     c_bands:  1 eigenvalues not converged
     ethr =  7.01E-06,  avg # of iterations = 20.0

     total cpu time spent up to now is     1134.0 secs

     total energy              =   -8961.24037024 Ry
     estimated scf accuracy    <       0.05442568 Ry

     iteration # 13     ecut=   250.00 Ry     beta= 0.20
     Davidson diagonalization with overlap
     ethr =  6.80E-06,  avg # of iterations =  2.0

     total cpu time spent up to now is     1160.2 secs

     total energy              =   -8961.24702411 Ry
     estimated scf accuracy    <       0.01976258 Ry

     iteration # 14     ecut=   250.00 Ry     beta= 0.20
     Davidson diagonalization with overlap
     ethr =  2.47E-06,  avg # of iterations =  2.0

     total cpu time spent up to now is     1184.2 secs

     total energy              =   -8961.24385532 Ry
     estimated scf accuracy    <       0.01848281 Ry

     iteration # 15     ecut=   250.00 Ry     beta= 0.20
     Davidson diagonalization with overlap
     ethr =  2.31E-06,  avg # of iterations =  2.0

     total cpu time spent up to now is     1208.7 secs

     total energy              =   -8961.24487086 Ry
     estimated scf accuracy    <       0.00271041 Ry

     iteration # 16     ecut=   250.00 Ry     beta= 0.20
     Davidson diagonalization with overlap
     ethr =  3.39E-07,  avg # of iterations =  2.0

     total cpu time spent up to now is     1234.3 secs

     total energy              =   -8961.24494316 Ry
     estimated scf accuracy    <       0.00107445 Ry

     iteration # 17     ecut=   250.00 Ry     beta= 0.20
     Davidson diagonalization with overlap
     ethr =  1.34E-07,  avg # of iterations =  4.0

     total cpu time spent up to now is     1259.1 secs

     total energy              =   -8961.24494243 Ry
     estimated scf accuracy    <       0.00044920 Ry

     iteration # 18     ecut=   250.00 Ry     beta= 0.20
     Davidson diagonalization with overlap
     c_bands:  1 eigenvalues not converged
     ethr =  5.61E-08,  avg # of iterations = 20.0

     total cpu time spent up to now is     1289.1 secs

     total energy              =   -8961.24494637 Ry
     estimated scf accuracy    <       0.00021711 Ry

     iteration # 19     ecut=   250.00 Ry     beta= 0.20
     Davidson diagonalization with overlap
     ethr =  2.71E-08,  avg # of iterations =  2.0

     total cpu time spent up to now is     1314.2 secs

     total energy              =   -8961.24494176 Ry
     estimated scf accuracy    <       0.00010462 Ry

     iteration # 20     ecut=   250.00 Ry     beta= 0.20
     Davidson diagonalization with overlap
     ethr =  1.31E-08,  avg # of iterations =  5.0

     total cpu time spent up to now is     1339.9 secs

     total energy              =   -8961.24494519 Ry
     estimated scf accuracy    <       0.00002943 Ry

     iteration # 21     ecut=   250.00 Ry     beta= 0.20
     Davidson diagonalization with overlap
     ethr =  3.68E-09,  avg # of iterations =  6.0

     total cpu time spent up to now is     1367.9 secs

     total energy              =   -8961.24494595 Ry
     estimated scf accuracy    <       0.00001785 Ry

     iteration # 22     ecut=   250.00 Ry     beta= 0.20
     Davidson diagonalization with overlap
     ethr =  2.23E-09,  avg # of iterations =  2.0

     total cpu time spent up to now is     1392.4 secs

     total energy              =   -8961.24494592 Ry
     estimated scf accuracy    <       0.00000578 Ry

     iteration # 23     ecut=   250.00 Ry     beta= 0.20
     Davidson diagonalization with overlap
     ethr =  7.22E-10,  avg # of iterations =  6.0

     total cpu time spent up to now is     1420.7 secs

     total energy              =   -8961.24494672 Ry
     estimated scf accuracy    <       0.00000181 Ry

     iteration # 24     ecut=   250.00 Ry     beta= 0.20
     Davidson diagonalization with overlap
     ethr =  2.26E-10,  avg # of iterations =  2.0

     total cpu time spent up to now is     1445.1 secs

     total energy              =   -8961.24494652 Ry
     estimated scf accuracy    <       0.00000101 Ry

     iteration # 25     ecut=   250.00 Ry     beta= 0.20
     Davidson diagonalization with overlap
     ethr =  1.26E-10,  avg # of iterations =  6.0

     total cpu time spent up to now is     1471.8 secs

     End of self-consistent calculation

          k = 0.0000 0.0000 0.0000 (274661 PWs)   bands (ev):

   -43.1211 -42.9823 -42.9330 -42.9093 -42.8845 -42.8673 -42.8644 -42.8616
   -42.8438 -42.8134 -42.8116 -42.7768 -42.7667 -42.7280 -42.7179 -42.6957
   -42.6635 -42.6516 -42.6439 -42.6314 -42.6213 -42.6055 -42.5998 -42.5904
   -42.5787 -42.5310 -42.5291 -42.5038 -42.4724 -42.4175 -42.3973 -42.3413
   -19.5494 -19.5174 -19.4935 -19.4712 -19.4445 -19.3994 -19.3810 -19.3670
   -19.3619 -19.3517 -19.3424 -19.3301 -19.3260 -19.3197 -19.3164 -19.3139
   -19.2946 -19.2908 -19.2797 -19.2701 -19.2673 -19.2607 -19.2465 -19.2384
   -19.2372 -19.2228 -19.2169 -19.2112 -19.2083 -19.1937 -19.1927 -19.1822
   -19.1565 -19.1505 -19.1404 -19.1363 -19.1338 -19.1300 -19.1205 -19.1120
   -19.1078 -19.1006 -19.0914 -19.0833 -19.0815 -19.0758 -19.0711 -19.0594
   -19.0505 -19.0450 -19.0319 -19.0228 -19.0186 -19.0122 -19.0095 -19.0047
   -19.0008 -18.9960 -18.9818 -18.9697 -18.9602 -18.9561 -18.9452 -18.9380
   -18.9267 -18.9185 -18.9052 -18.9009 -18.8962 -18.8932 -18.8857 -18.8677
   -18.8640 -18.8635 -18.8558 -18.8517 -18.8434 -18.8339 -18.8258 -18.8182
   -18.8174 -18.8090 -18.7986 -18.7955 -18.7782 -18.7599 -18.7449 -18.7255
   -18.7180 -18.7092 -18.6645 -18.6525 -18.6327 -18.6138 -18.5922 -18.5827
    -3.2395  -2.3036  -2.2527  -2.2247  -2.1777  -2.1032  -2.0664  -2.0214
    -1.9681  -1.9212  -1.8305  -1.7696  -1.6867  -1.6541  -1.5465  -1.0149
    -0.9824  -0.9459  -0.9327  -0.9152  -0.9045  -0.8686  -0.8529  -0.8169
    -0.7915  -0.7584  -0.7375  -0.7330  -0.7141  -0.6891  -0.6474  -0.6422
    -0.6349  -0.5996  -0.5672  -0.5574  -0.5215  -0.5209  -0.4942  -0.4711
    -0.4635  -0.4393  -0.4215  -0.4054  -0.3674  -0.3496  -0.3367  -0.3204
    -0.2999  -0.2835  -0.2673  -0.2532  -0.2323  -0.2045  -0.1971  -0.1778
    -0.1580  -0.0903  -0.0296  -0.0008   0.0249   0.0578   0.1086   0.1239
     5.2924   5.4680   5.7824   5.8607   6.4265   6.4974   6.5224   6.6001
     6.6549   6.6895   6.7158   6.7738   6.7858   6.8186   6.8975   6.9348
     6.9661   7.0191   7.0247   7.0688   7.1236   7.1467   7.2041   7.2334
     7.2433   7.3472   7.3674   7.4587   7.5152   7.5306   7.5616   7.5989
     7.6676   7.6879   7.7459   7.8126   7.8335   7.8643   7.9258   7.9502
     8.0147   8.0649   8.1350   8.1600   8.1860   8.2405   8.2638   8.2919
     8.4073   8.4184   8.4537   8.5027   8.5145   8.5397   8.6147   8.6254
     8.6447   8.7025   8.7147   8.7563   8.8202   8.8480   8.8782   8.8868
     8.9143   8.9385   8.9773   8.9924   9.0335   9.0725   9.0909   9.0982
     9.1082   9.1266   9.1347   9.1740   9.1981   9.2349   9.2616   9.2724
     9.3255   9.3408   9.3523   9.3704   9.4010   9.4419   9.4467   9.4762
     9.5129   9.5347   9.5578   9.5710   9.5863   9.5989   9.6133   9.6450
     9.6864   9.6954   9.7235   9.7516   9.7691   9.7880   9.8276   9.8315
     9.8624   9.8989   9.9248   9.9435   9.9557   9.9855   9.9934  10.0298
    10.0528  10.0864  10.1116  10.1371  10.1625  10.2088  10.2880  10.3040
    10.3318  10.3600  10.4110  10.4418  10.4836  10.5183  10.5511  10.6076
    10.6339  10.6860  10.6973  10.7072  10.7269  10.7759  10.7888  10.8217
    10.8542  10.8786  10.9170  10.9217  10.9656  10.9932  11.0120  11.0385
    11.0566  11.0897  11.0999  11.1383  11.1419  11.1777  11.2085  11.2501
    11.2598  11.3109  11.3207  11.3284  11.3630  11.3990  11.4070  11.4580
    11.4870  11.5233  11.5431  11.5654  11.6011  11.6195  11.6368  11.6587
    11.6662  11.6801  11.6967  11.7345  11.7465  11.7496  11.7821  11.8016
    11.8127  11.8278  11.8441  11.8715  11.8978  11.9243  11.9547  11.9622
    11.9806  11.9944  12.0401  12.0561  12.0687  12.9571  12.9739  12.9897
    13.0539  13.0798  13.1205  13.8338  13.8821  14.0147  14.0265  14.0526
    14.4066  14.7339  14.9088  14.9356  14.9628  14.9921  15.0549  15.1056
    15.1618  15.1829  15.2112  15.2470  15.2722  15.3447  15.4001  15.4127
    15.4313  15.4692  15.4790  15.5269  15.5592  15.5860  15.6639  15.6962
    15.7082  15.7576  15.7967  15.8291  15.9394  15.9516  16.0057  16.0238
    16.0392  16.0669  16.1101  16.1292  16.1442  16.1643  16.2014  16.2169
    16.2568  16.2782  16.3063  16.3346  16.4217  16.4277  16.4691  16.5102
    16.5454  16.5857  16.5972  16.6184  16.6635  16.6820  16.7114  16.7189
    16.7364  16.7559  16.7840  16.7907  16.8155  16.8783  16.8915  16.9212
    16.9295  16.9360  16.9509  16.9747  16.9988  17.0180  17.0384  17.0447
    17.0719  17.0810  17.0966  17.1098  17.1281  17.1408  17.1552  17.1720
    17.1938  17.2134  17.2404  17.2537  17.2668  17.2865  17.3081  17.3372

     the Fermi energy is    15.1267 ev

!    total energy              =   -8961.24494628 Ry
     total all-electron energy =    -77206.470117 Ry
     estimated scf accuracy    <       0.00000038 Ry
     smearing contrib. (-TS)   =      -0.00789561 Ry
     internal energy E=F+TS    =   -8961.23705067 Ry

     The total energy is F=E-TS. E is the sum of the following terms:
     one-electron contribution =   -1743.94249196 Ry
     hartree contribution      =    1390.46673823 Ry
     xc contribution           =   -1057.45203096 Ry
     ewald contribution        =   -3840.45850246 Ry
     one-center paw contrib.   =   -3709.85076352 Ry

     convergence has been achieved in  25 iterations

     Forces acting on atoms (cartesian axes, Ry/au):

     atom    1 type  3   force =     0.03033488    0.01337744   -0.00875005
     atom    2 type  2   force =    -0.05224414    0.00951127    0.00088262
     atom    3 type  3   force =     0.02814217   -0.01874481    0.00030028
     atom    4 type  2   force =    -0.00923276   -0.02493773    0.03913798
     atom    5 type  1   force =    -0.00381360    0.00094566    0.00401998
     atom    6 type  2   force =     0.03936354   -0.01664020   -0.05216035
     atom    7 type  3   force =    -0.02274758    0.02882492    0.00203454
     atom    8 type  2   force =    -0.02712521    0.01039401    0.04058884
     atom    9 type  3   force =     0.00961716   -0.03758290   -0.01148834
     atom   10 type  2   force =    -0.00004819    0.02422168    0.01973372
     atom   11 type  3   force =    -0.01149581   -0.00672792   -0.01384634
     atom   12 type  2   force =     0.00088055    0.02710543    0.01116603
     atom   13 type  1   force =     0.00039564   -0.00117501    0.00605270
     atom   14 type  2   force =    -0.01975258    0.00389146   -0.01885188
     atom   15 type  3   force =     0.01386090   -0.01547258    0.01857006
     atom   16 type  2   force =    -0.01650655    0.01948171   -0.01502822
     atom   17 type  3   force =     0.00557283   -0.00746483    0.02084707
     atom   18 type  2   force =    -0.03059894    0.01108880   -0.02011017
     atom   19 type  3   force =     0.00005665    0.00182216   -0.00140414
     atom   20 type  2   force =    -0.02509586    0.01427902    0.04026906
     atom   21 type  3   force =     0.00109963    0.02446654   -0.04724092
     atom   22 type  2   force =    -0.01645866    0.00749631    0.03592916
     atom   23 type  1   force =    -0.00516858    0.01213834   -0.00916130
     atom   24 type  2   force =    -0.00056317    0.02006043   -0.02864374
     atom   25 type  1   force =     0.00077056    0.00329367   -0.00501595
     atom   26 type  2   force =    -0.02608576    0.01028203   -0.02466059
     atom   27 type  3   force =     0.01426850   -0.00922913    0.01497120
     atom   28 type  2   force =    -0.05028374    0.02290671    0.01469312
     atom   29 type  3   force =     0.00802774   -0.01724192   -0.05078052
     atom   30 type  2   force =     0.00707036    0.00344455    0.00119156
     atom   31 type  1   force =    -0.00835735    0.00121486    0.00240522
     atom   32 type  2   force =    -0.00093819   -0.02488194    0.03290293
     atom   33 type  3   force =    -0.02229187    0.03074060   -0.00810753
     atom   34 type  2   force =     0.01145805    0.00699044   -0.00123885
     atom   35 type  3   force =    -0.03621660   -0.01360233   -0.00061987
     atom   36 type  2   force =     0.00143915   -0.00093709    0.04579822
     atom   37 type  1   force =     0.00327511    0.00443368    0.00183446
     atom   38 type  2   force =     0.00429403    0.00095930   -0.05400964
     atom   39 type  3   force =    -0.00541740    0.02946555    0.02170979
     atom   40 type  2   force =    -0.00208347   -0.00162002    0.00084286
     atom   41 type  3   force =    -0.00707860    0.00277987    0.00928923
     atom   42 type  2   force =     0.03432951    0.01274586   -0.02330658
     atom   43 type  3   force =    -0.01155002    0.00886894   -0.01814713
     atom   44 type  2   force =     0.00490570   -0.03671656    0.03976453
     atom   45 type  1   force =    -0.00583414   -0.00231167    0.00307574
     atom   46 type  2   force =     0.02772565    0.01347770   -0.02008925
     atom   47 type  3   force =    -0.02188845   -0.01481295    0.03166617
     atom   48 type  2   force =    -0.03075531    0.02414232   -0.02377392
     atom   49 type  1   force =     0.00954879    0.01445782   -0.00345902
     atom   50 type  2   force =    -0.00748199   -0.00020906   -0.05123432
     atom   51 type  3   force =    -0.00110726    0.02645968    0.01223528
     atom   52 type  2   force =     0.03433384   -0.02166462    0.02624486
     atom   53 type  1   force =     0.00031285   -0.00263774    0.00057749
     atom   54 type  2   force =    -0.02184023   -0.01346027    0.02448007
     atom   55 type  3   force =     0.03445940   -0.00612945   -0.00178885
     atom   56 type  2   force =     0.01290842    0.02654732   -0.00154550
     atom   57 type  1   force =     0.00432630   -0.00980515   -0.00561631
     atom   58 type  2   force =    -0.00405851   -0.03732027   -0.02649729
     atom   59 type  3   force =    -0.04055254    0.00796154    0.02088664
     atom   60 type  2   force =     0.01079302    0.03745494    0.02699189
     atom   61 type  3   force =    -0.01375817   -0.00085311   -0.02010898
     atom   62 type  2   force =     0.00404311   -0.00722324    0.00262770
     atom   63 type  1   force =     0.00311502    0.00368938    0.00832943
     atom   64 type  2   force =     0.00207262   -0.04026789    0.00976171
     atom   65 type  1   force =     0.00220597   -0.01066231   -0.00116587
     atom   66 type  2   force =     0.02146125   -0.03210794    0.01767161
     atom   67 type  1   force =     0.00498881   -0.00592717   -0.00372323
     atom   68 type  2   force =     0.00362309   -0.01540456    0.02596321
     atom   69 type  1   force =     0.00427234   -0.01050175    0.00036059
     atom   70 type  2   force =    -0.00567833   -0.01962033   -0.02091618
     atom   71 type  1   force =     0.01024463   -0.01389466    0.00638625
     atom   72 type  2   force =     0.05040440   -0.02196037   -0.02291317
     atom   73 type  3   force =     0.00707186    0.00368269   -0.02779294
     atom   74 type  2   force =    -0.01061584    0.02843360   -0.03421499
     atom   75 type  3   force =    -0.00198947    0.01072883    0.00106126
     atom   76 type  2   force =    -0.00073114    0.02474492    0.02357714
     atom   77 type  3   force =     0.01043059   -0.00634348   -0.00783490
     atom   78 type  2   force =     0.02341463    0.01148801   -0.01027849
     atom   79 type  1   force =    -0.00312615   -0.00615889    0.00259614
     atom   80 type  2   force =    -0.00778976   -0.00660515    0.00731296
     atom   81 type  1   force =     0.00069354    0.00972634   -0.01110245
     atom   82 type  2   force =     0.02546629   -0.02022060   -0.03246742
     atom   83 type  1   force =     0.00250606    0.01579165   -0.00307641
     atom   84 type  2   force =     0.02214683   -0.03400207    0.00496307
     atom   85 type  1   force =     0.00198760   -0.00246427   -0.00874061
     atom   86 type  2   force =    -0.01146510    0.00975729   -0.00134662
     atom   87 type  3   force =     0.00215983   -0.02302375    0.00038467
     atom   88 type  2   force =    -0.00455520    0.01783363    0.00915659
     atom   89 type  1   force =     0.00056811    0.00087765   -0.00693937
     atom   90 type  2   force =     0.03720832   -0.01870892   -0.00611941
     atom   91 type  1   force =     0.00122135   -0.00430834   -0.01371825
     atom   92 type  2   force =     0.02660539    0.01448759   -0.01801543
     atom   93 type  3   force =    -0.00092614   -0.02305275    0.00444624
     atom   94 type  2   force =    -0.00560302   -0.00289905    0.00039746
     atom   95 type  1   force =     0.00813827    0.00151509    0.00666520
     atom   96 type  2   force =     0.01554680   -0.03124729   -0.00614351
     atom   97 type  1   force =     0.00014285   -0.00362665    0.01177340
     atom   98 type  2   force =     0.01954766   -0.03134296    0.00621497
     atom   99 type  1   force =    -0.00651106   -0.00405550    0.00399709
     atom  100 type  2   force =     0.00613828   -0.03859830    0.01396561
     atom  101 type  1   force =    -0.00375940   -0.01125494    0.00360836
     atom  102 type  2   force =    -0.02887046   -0.01220400    0.02119978
     atom  103 type  3   force =     0.01661035    0.03470735   -0.00813977
     atom  104 type  2   force =    -0.02628062   -0.01276975    0.01544602
     atom  105 type  1   force =    -0.01327471   -0.00422545   -0.00657846
     atom  106 type  2   force =    -0.02330895    0.01445501   -0.00990852
     atom  107 type  3   force =     0.01529187   -0.00171527   -0.00241613
     atom  108 type  2   force =    -0.00690514    0.03742117   -0.03170661
     atom  109 type  3   force =     0.00716658   -0.00723254    0.03040500
     atom  110 type  2   force =    -0.03673480    0.01388102   -0.01646922
     atom  111 type  3   force =    -0.01658525   -0.00803875    0.00705939
     atom  112 type  2   force =     0.05829841    0.03400874    0.02614355
     atom  113 type  3   force =     0.01154859   -0.01249896    0.00170455
     atom  114 type  2   force =     0.00691588    0.01000988    0.01350497
     atom  115 type  1   force =    -0.00671437    0.01457878    0.00889333
     atom  116 type  2   force =    -0.02590707   -0.03588277    0.00349422
     atom  117 type  1   force =     0.00512696   -0.00099393    0.00339609
     atom  118 type  2   force =     0.03868521    0.00148615   -0.00812362
     atom  119 type  1   force =    -0.00271579    0.00721714   -0.00140794
     atom  120 type  2   force =    -0.01265990    0.00805102   -0.00982528
     atom  121 type  1   force =    -0.00653924    0.00866065   -0.00565428
     atom  122 type  2   force =    -0.01913321    0.01186612   -0.01116462
     atom  123 type  3   force =     0.02398604   -0.01684416    0.01782749
     atom  124 type  2   force =     0.01444542    0.03473841   -0.00322828
     atom  125 type  1   force =     0.00088002    0.00893306    0.00986954
     atom  126 type  2   force =    -0.00227377    0.00620152    0.00081983
     atom  127 type  1   force =    -0.00390297    0.00263065    0.00093601
     atom  128 type  2   force =    -0.01696370   -0.01926790    0.01480383

     Total force =     0.367082     Total SCF correction =     0.002717


     Computing stress (Cartesian axis) and pressure

          total   stress  (Ry/bohr**3)                   (kbar)     P=       11.80
   0.00005926   0.00000998  -0.00000539            8.72        1.47       -0.79
   0.00000998   0.00008457  -0.00001322            1.47       12.44       -1.94
  -0.00000539  -0.00001322   0.00009680           -0.79       -1.94       14.24

     Energy error            =      3.8E-01 Ry
     Gradient error          =      5.8E-02 Ry/Bohr
     Cell gradient error     =      1.4E+01 kbar

     number of scf cycles    =   2
     number of bfgs steps    =   1

     enthalpy           old  =   -8960.8667887037 Ry
     enthalpy           new  =   -8961.2449462816 Ry

     CASE: enthalpy          _new < enthalpy          _old

     new trust radius        =       0.1320984159 bohr
     new conv_thr            =       0.0000010000 Ry

     new unit-cell volume =   7829.27919 a.u.^3 (  1160.17948 Ang^3 )
     density =      4.71122 g/cm^3

CELL_PARAMETERS (angstrom)
  11.772570394   0.007593832  -0.008395901
   5.892860130  10.228403023  -0.008972265
   5.881617410   3.407496633   9.632673780

ATOMIC_POSITIONS (angstrom)
Ti            0.0550210838        0.0300673522       -0.0125027790
N            11.6844817968        1.7221952233        1.1961152349
Ti            1.5232387748        0.8237976845        2.4002222782
N            13.2303833479        2.5199317444        3.6747704740
Al            2.9363632888        1.7084468743        4.8168102070
N            14.7718409466        3.3822079806        5.9289472052
Ti            4.3737737705        2.6118205545        7.2206078632
N            16.1416403510        4.2818371903        8.4888877105
Ti            1.5003936206        2.5013265418       -0.0140952562
N            13.2464968298        4.3156604396        1.2262053177
Ti            2.9187817072        3.3966006744        2.3621789184
N            14.7185537800        5.1686606911        3.6236733970
Al            4.4134008542        4.2550398682        4.8231417137
N            16.1523867339        5.9840701761        5.9754612513
Ti            5.9102329783        5.0798727995        7.2689222525
N            17.6229117304        6.8613646454        8.3852305147
Ti            2.9509837478        5.0787588746        0.0466432051
N            14.6671263965        6.8472662381        1.1501720584
Ti            4.4134777302        5.9660990477        2.4031657625
N            16.1489762260        7.7025460695        3.6700061565
Ti            5.8955883714        6.8510240131        4.7247031228
N            17.6273060514        8.5464139243        6.0785191251
Al           19.1278375246        7.6880407537        7.2044185827
N            19.1288576325        9.4232902084        8.3563414857
Al            4.4205360088        7.6746171093       -0.0107279718
N            16.1438237275        9.4036121159        1.1440538952
Ti            5.9235795227        8.5097065822        2.4314018439
N            17.5757716922       10.2779551321        3.6292368133
Ti            7.3867438889        9.3379112795        4.7094486222
N            19.1405120952       11.0899574158        6.0124653883
Al           20.5945114340       10.2357057091        7.2119470043
N            20.5987149407       11.8895107756        8.4748946885
Ti            2.8880592079        0.0616338373        0.0010456579
N             2.9600438139        1.7148056385        1.2023087758
Ti            4.3508097249        0.8370383140        2.4002428598
N             4.4163121036        2.5552669768        3.6966012137
Al            5.8854241851        1.7133479463        4.8159161962
N             5.8912951618        3.4085329843        5.9228937972
Ti            7.3474531378        2.6234630797        7.2556562982
N             7.3465467473        4.2564306913        8.4204319846
Ti            4.3972445863        2.5741788932        0.0152241382
N             4.4748835537        4.2815515495        1.1599549588
Ti            5.8660395200        3.4356980631        2.3645964652
N             5.8948392439        5.0541310404        3.6785952587
Al            7.3473075482        4.2615780141        4.8152297814
N             7.4040611171        5.9907122144        5.9796415077
Ti            8.7896564326        5.0964819323        7.2790827453
N             8.7793052360        6.8586922545        8.3863641154
Al            5.8992466328        5.1254296322       -0.0030503505
N             5.8788106766        6.8169743683        1.1030293401
Ti            7.3590096383        6.0041960511        2.4326582802
N             7.4098948525        7.6388250327        3.6491767874
Al            8.8237236498        6.8157115530        4.8042571541
N             8.7890247142        8.5009617084        6.0576002047
Ti           10.3498817689        7.6480877882        7.2154316745
N            10.3273104904        9.4286231780        8.4191373662
Al            7.3652538075        7.6656618471       -0.0104340002
N             7.3598812242        9.3192952211        1.1524325015
Ti            8.7536504850        8.5529100243        2.4383425448
N             8.8470620027       10.2879070587        3.6487038499
Ti           10.2873454369        9.3818395304        4.7778526865
N            10.3102593613       11.0690130417        6.0155966438
Al           11.7757583614       10.2305816055        7.2232039895
N            11.7771544680       11.8534129932        8.4416047767
Al            5.8907505420       -0.0020540034       -0.0055820389
N             5.9252900105        1.6467760673        1.2272451169
Al            7.3578582258        0.8488062793        2.4002658859
N             7.3626110990        2.5251674044        3.6598466976
Al            8.8328747487        1.6985067076        4.8094706168
N             8.8202608457        3.3711513798        5.9785396561
Al           10.3105588007        2.5490151856        7.2249503339
N            10.3810225796        4.2219818360        8.3848189715
Ti            7.3559050684        2.5731256612       -0.0493662557
N             7.3458391686        4.3118514900        1.1372774572
Ti            8.8315088761        3.4423235931        2.3996090422
N             8.8292838742        5.1574098511        3.6441911733
Ti           10.3074819735        4.2585316579        4.8037352888
N            10.3410492156        5.9918224179        5.9888553563
Al           11.7706807976        5.1115451667        7.2227826231
N            11.7622497389        6.8139796227        8.4340252937
Al            8.8329301481        5.1222288536       -0.0158570088
N             8.8786284691        6.7850162474        1.1311095221
Al           10.3047635066        5.9845601361        2.3982182268
N            10.3444374416        7.6095290177        3.6104527505
Al           11.7786376226        6.8193141402        4.8016447377
N            11.7581188629        8.5403950907        6.0109725376
Ti           13.2322067671        7.6260908773        7.2091080614
N            13.2390371131        9.4160482769        8.4417106745
Al           10.3029774215        7.6792008559       -0.0185068249
N            10.3802720014        9.3393325126        1.1750852676
Al           11.7766203083        8.5230867154        2.3830377480
N            11.8240256251       10.2579549017        3.5687764004
Ti           13.2280516723        9.3441652661        4.8136145033
N            13.2402451074       11.0794721879        6.0096275877
Al           14.7275742577       10.2330992987        7.2232001852
N            14.7519185123       11.8679976232        8.4065775075
Al            8.8332387995        0.0058043690        0.0031053045
N             8.8649286680        1.6471045410        1.2064179176
Al           10.2945818124        0.8538501475        2.4078211118
N            10.3077580116        2.4861701678        3.6351088244
Al           11.7670882100        1.6999361739        4.8072853722
N            11.7217933223        3.3875609058        6.0527055964
Ti           19.1682799240       12.8633948496        7.1858652595
N            13.1976754859        4.2362906061        8.4492402765
Al           10.2885837046        2.5572566847       -0.0200246646
N            10.2596721864        4.2940010051        1.1720916598
Ti           11.8051485007        3.4125838777        2.3812116731
N            11.7617338052        5.1895287611        3.5523689489
Ti           13.2630785708        4.2493795288        4.8559665197
N            13.1840705079        5.9967631850        5.9821941368
Ti           14.6904942218        5.0989272694        7.2263349776
N            14.8126766762        6.8816195231        8.4650969053
Ti           11.8039333691        5.0738682745        0.0086547732
N            11.7842378239        6.8508522105        1.2178662739
Al           13.2409438311        5.9846757969        2.4069456000
N            13.2017173056        7.6122702340        3.6042234042
Al           14.7247545997        6.8199957038        4.8061172440
N            14.7919607724        8.5323256159        5.9982202118
[...]

     total energy              =   -8961.41956788 Ry
     estimated scf accuracy    <       0.00000166 Ry

     iteration # 19     ecut=   250.00 Ry     beta= 0.20
     Davidson diagonalization with overlap
     ethr =  2.08E-10,  avg # of iterations =  6.0

     total cpu time spent up to now is     9135.2 secs

     total energy              =   -8961.41956166 Ry
     estimated scf accuracy    <       0.00000072 Ry

     iteration # 20     ecut=   250.00 Ry     beta= 0.20
     Davidson diagonalization with overlap
     ethr =  9.03E-11,  avg # of iterations =  2.0

     total cpu time spent up to now is     9159.0 secs

     total energy              =   -8961.41955971 Ry
     estimated scf accuracy    <       0.00000035 Ry

     iteration # 21     ecut=   250.00 Ry     beta= 0.20
     Davidson diagonalization with overlap
     ethr =  4.44E-11,  avg # of iterations =  6.0

     total cpu time spent up to now is     9184.4 secs

     total energy              =   -8961.41955901 Ry
     estimated scf accuracy    <       0.00000009 Ry

     iteration # 22     ecut=   250.00 Ry     beta= 0.20
     Davidson diagonalization with overlap
     ethr =  1.16E-11,  avg # of iterations =  8.0

     total cpu time spent up to now is     9214.2 secs

     total energy              =   -8961.41956098 Ry
     estimated scf accuracy    <       0.00000004 Ry

     iteration # 23     ecut=   250.00 Ry     beta= 0.20
     Davidson diagonalization with overlap
     ethr =  4.57E-12,  avg # of iterations =  2.0

     total cpu time spent up to now is     9237.1 secs

     total energy              =   -8961.41956116 Ry
     estimated scf accuracy    <       0.00000002 Ry

     iteration # 24     ecut=   250.00 Ry     beta= 0.20
     Davidson diagonalization with overlap
     ethr =  2.19E-12,  avg # of iterations =  2.0

     total cpu time spent up to now is     9259.9 secs

     End of self-consistent calculation

          k = 0.0000 0.0000 0.0000 (263353 PWs)   bands (ev):

   -43.4036 -43.2293 -43.1680 -43.1452 -43.0963 -43.0735 -43.0584 -43.0422
   -43.0404 -43.0294 -42.9987 -42.9786 -42.9154 -42.9060 -42.8844 -42.8833
   -42.8519 -42.8283 -42.8187 -42.8068 -42.7862 -42.7622 -42.7549 -42.7073
   -42.7023 -42.6708 -42.6521 -42.6357 -42.6107 -42.5292 -42.5067 -42.5048
   -19.8045 -19.7505 -19.7242 -19.7053 -19.6578 -19.5975 -19.5800 -19.5618
   -19.5586 -19.5453 -19.5336 -19.5285 -19.5221 -19.5112 -19.4991 -19.4909
   -19.4866 -19.4851 -19.4723 -19.4695 -19.4573 -19.4408 -19.4318 -19.4253
   -19.4192 -19.3996 -19.3966 -19.3924 -19.3909 -19.3812 -19.3669 -19.3573
   -19.3408 -19.3385 -19.3278 -19.3259 -19.3060 -19.3002 -19.2872 -19.2774
   -19.2751 -19.2732 -19.2575 -19.2484 -19.2427 -19.2385 -19.2200 -19.2190
   -19.2116 -19.2040 -19.1951 -19.1888 -19.1800 -19.1752 -19.1668 -19.1648
   -19.1629 -19.1545 -19.1335 -19.1317 -19.1166 -19.1113 -19.1004 -19.0959
   -19.0935 -19.0859 -19.0723 -19.0646 -19.0523 -19.0402 -19.0210 -19.0196
   -19.0159 -19.0061 -19.0034 -18.9926 -18.9849 -18.9792 -18.9677 -18.9622
   -18.9560 -18.9194 -18.9085 -18.8965 -18.8946 -18.8518 -18.8490 -18.8364
   -18.8338 -18.8018 -18.7960 -18.7700 -18.7682 -18.7276 -18.6842 -18.6284
    -3.3401  -2.4689  -2.3911  -2.3617  -2.3082  -2.1880  -2.1679  -2.0964
    -2.0663  -2.0123  -1.8956  -1.8188  -1.7515  -1.6971  -1.6136  -1.1153
    -1.1017  -1.0538  -1.0437  -1.0374  -1.0107  -0.9866  -0.9510  -0.9282
    -0.8862  -0.8629  -0.8398  -0.8277  -0.7498  -0.7264  -0.7161  -0.7062
    -0.6597  -0.6497  -0.6341  -0.6107  -0.5858  -0.5460  -0.5083  -0.5074
    -0.4713  -0.4615  -0.4455  -0.4293  -0.4066  -0.3954  -0.3813  -0.3638
    -0.3378  -0.2896  -0.2815  -0.2595  -0.2491  -0.2155  -0.2124  -0.1967
    -0.1540  -0.1079  -0.0689  -0.0216  -0.0130   0.0494   0.0951   0.1305
     5.2922   5.5105   5.7861   5.8772   6.4398   6.4777   6.5211   6.5567
     6.6490   6.6705   6.6939   6.7484   6.7607   6.8191   6.8962   6.9197
     6.9429   6.9926   7.0223   7.0702   7.0947   7.1261   7.1731   7.2011
     7.2312   7.3308   7.3719   7.4420   7.4830   7.4944   7.5504   7.5635
     7.6093   7.6797   7.7116   7.7591   7.7782   7.7928   7.8800   7.9194
     7.9502   7.9916   8.0712   8.1000   8.1019   8.1666   8.1693   8.2551
     8.3433   8.3530   8.3667   8.4126   8.4355   8.4842   8.5354   8.5720
     8.5910   8.6396   8.6645   8.6900   8.7536   8.7751   8.7928   8.8318
     8.8474   8.8768   8.9337   8.9483   8.9727   8.9976   9.0083   9.0466
     9.0515   9.0583   9.0938   9.1231   9.1480   9.1752   9.1833   9.2332
     9.2525   9.2864   9.2971   9.3112   9.3354   9.3702   9.3762   9.4205
     9.4589   9.4805   9.5007   9.5243   9.5491   9.5719   9.6093   9.6181
     9.6586   9.6808   9.6984   9.7137   9.7531   9.7820   9.7953   9.8314
     9.8658   9.8989   9.9273   9.9372   9.9592   9.9777  10.0438  10.0487
    10.0995  10.1073  10.1439  10.1591  10.1796  10.2846  10.3118  10.3258
    10.3521  10.4063  10.4255  10.4554  10.4897  10.5309  10.5632  10.6206
    10.6616  10.6727  10.7021  10.7257  10.7390  10.7494  10.7809  10.8043
    10.8344  10.8698  10.9070  10.9411  10.9805  11.0004  11.0106  11.0249
    11.0631  11.0734  11.0898  11.1414  11.1525  11.1693  11.2089  11.2300
    11.2480  11.2789  11.3045  11.3225  11.3449  11.3675  11.4195  11.4377
    11.4907  11.5109  11.5482  11.5570  11.5754  11.6001  11.6064  11.6251
    11.6399  11.6494  11.6712  11.6858  11.6979  11.7330  11.7599  11.7722
    11.7798  11.7904  11.8024  11.8475  11.8799  11.9037  11.9376  11.9468
    11.9514  11.9644  12.0180  12.0448  12.0614  12.7848  12.8331  12.8608
    12.9098  12.9331  12.9571  13.5902  13.6436  13.7456  13.7561  13.7929
    14.1771  14.4169  14.4768  14.5650  14.6004  14.6702  14.7317  14.7966
    14.9340  15.0189  15.0317  15.0586  15.1107  15.1481  15.2036  15.2322
    15.2398  15.2721  15.3076  15.3679  15.3904  15.4312  15.4657  15.5307
    15.5560  15.5868  15.6382  15.6630  15.7561  15.7850  15.8135  15.8260
    15.8488  15.8812  15.9297  15.9484  15.9807  16.0010  16.0213  16.0522
    16.0623  16.0692  16.1405  16.1613  16.2376  16.2429  16.2902  16.3244
    16.3719  16.4142  16.4389  16.4561  16.4709  16.4975  16.5206  16.5493
    16.5686  16.5892  16.5970  16.6255  16.6538  16.6612  16.6752  16.7199
    16.7447  16.7651  16.7721  16.7882  16.8174  16.8251  16.8452  16.8836
    16.8965  16.9050  16.9235  16.9311  16.9387  16.9948  17.0212  17.0522
    17.0664  17.0909  17.0998  17.1078  17.1445  17.1489  17.1644  17.1714

     the Fermi energy is    14.8656 ev

!    total energy              =   -8961.41956255 Ry
     total all-electron energy =    -77206.644733 Ry
     estimated scf accuracy    <          9.9E-09 Ry
     smearing contrib. (-TS)   =      -0.00212016 Ry
     internal energy E=F+TS    =   -8961.41744239 Ry

     The total energy is F=E-TS. E is the sum of the following terms:
     one-electron contribution =   -1691.89251829 Ry
     hartree contribution      =    1361.72986604 Ry
     xc contribution           =   -1057.20169616 Ry
     ewald contribution        =   -3864.13632265 Ry
     one-center paw contrib.   =   -3709.91677132 Ry

     convergence has been achieved in  24 iterations

     Forces acting on atoms (cartesian axes, Ry/au):

     atom    1 type  3   force =     0.00000508    0.00002415   -0.00001107
     atom    2 type  2   force =     0.00006802    0.00005782   -0.00001190
     atom    3 type  3   force =     0.00003901    0.00004029    0.00001287
     atom    4 type  2   force =     0.00000749   -0.00001799    0.00005498
     atom    5 type  1   force =     0.00000804   -0.00003110   -0.00000717
     atom    6 type  2   force =    -0.00001917    0.00001020   -0.00000227
     atom    7 type  3   force =    -0.00000154   -0.00001658   -0.00002581
     atom    8 type  2   force =    -0.00001122   -0.00000257   -0.00005442
     atom    9 type  3   force =    -0.00003412    0.00003719    0.00000158
     atom   10 type  2   force =     0.00004841   -0.00004558    0.00002992
     atom   11 type  3   force =     0.00003955   -0.00002772    0.00001442
     atom   12 type  2   force =     0.00001493   -0.00001527   -0.00003934
     atom   13 type  1   force =     0.00002896   -0.00002542   -0.00000774
     atom   14 type  2   force =    -0.00001564   -0.00002253   -0.00000590
     atom   15 type  3   force =     0.00001527   -0.00000048   -0.00000541
     atom   16 type  2   force =     0.00003854   -0.00000342   -0.00000526
     atom   17 type  3   force =     0.00000639   -0.00004995    0.00000075
     atom   18 type  2   force =    -0.00000470    0.00001668   -0.00001471
     atom   19 type  3   force =     0.00000544   -0.00003902    0.00001484
     atom   20 type  2   force =     0.00001632    0.00004146   -0.00001347
     atom   21 type  3   force =     0.00002988   -0.00000009   -0.00004592
     atom   22 type  2   force =    -0.00000233    0.00004546    0.00000927
     atom   23 type  1   force =    -0.00002156   -0.00002144   -0.00003221
     atom   24 type  2   force =    -0.00001464   -0.00000288    0.00001373
     atom   25 type  1   force =    -0.00000684    0.00001184   -0.00001295
     atom   26 type  2   force =     0.00001395    0.00001571   -0.00001921
     atom   27 type  3   force =     0.00003621   -0.00003709    0.00003512
     atom   28 type  2   force =    -0.00000506    0.00002144   -0.00002276
     atom   29 type  3   force =     0.00004565    0.00001023   -0.00000893
     atom   30 type  2   force =    -0.00002172    0.00000377    0.00001323
     atom   31 type  1   force =     0.00001520   -0.00002706    0.00002378
     atom   32 type  2   force =     0.00001292    0.00000896    0.00000275
     atom   33 type  3   force =     0.00002650    0.00003297   -0.00002901
     atom   34 type  2   force =    -0.00002434    0.00000355    0.00000073
     atom   35 type  3   force =     0.00001681    0.00001586    0.00001886
     atom   36 type  2   force =    -0.00003916    0.00000745   -0.00000793
     atom   37 type  1   force =    -0.00001091    0.00000257    0.00001156
     atom   38 type  2   force =    -0.00000205    0.00001614    0.00006345
     atom   39 type  3   force =     0.00002200    0.00002420    0.00002183
     atom   40 type  2   force =     0.00000504    0.00003170   -0.00006092
     atom   41 type  3   force =    -0.00002734    0.00000611    0.00000279
     atom   42 type  2   force =     0.00003088   -0.00001466   -0.00000616
     atom   43 type  3   force =    -0.00004880   -0.00000623    0.00000471
     atom   44 type  2   force =    -0.00005002   -0.00000992   -0.00000131
     atom   45 type  1   force =    -0.00003946    0.00001177    0.00002876
     atom   46 type  2   force =    -0.00000188    0.00001630    0.00000199
     atom   47 type  3   force =     0.00002131   -0.00000861   -0.00003545
     atom   48 type  2   force =    -0.00003431    0.00000413   -0.00002133
     atom   49 type  1   force =     0.00003431    0.00000243    0.00005513
     atom   50 type  2   force =    -0.00001338    0.00002595    0.00000744
     atom   51 type  3   force =    -0.00001471   -0.00003244    0.00001811
     atom   52 type  2   force =     0.00001880    0.00001933    0.00000499
     atom   53 type  1   force =    -0.00000615   -0.00002447    0.00001606
     atom   54 type  2   force =    -0.00002911   -0.00000565   -0.00002140
     atom   55 type  3   force =    -0.00002788   -0.00001427   -0.00000739
     atom   56 type  2   force =     0.00000800   -0.00000138    0.00000613
     atom   57 type  1   force =    -0.00000621    0.00001067    0.00003989
     atom   58 type  2   force =     0.00000218   -0.00002363    0.00000472
     atom   59 type  3   force =     0.00001106    0.00002539    0.00001748
     atom   60 type  2   force =    -0.00000654   -0.00001138    0.00000226
     atom   61 type  3   force =    -0.00000378    0.00001256    0.00000077
     atom   62 type  2   force =    -0.00000160   -0.00001685   -0.00000930
     atom   63 type  1   force =    -0.00000889    0.00002955    0.00004715
     atom   64 type  2   force =     0.00001101    0.00001766   -0.00000087
     atom   65 type  1   force =    -0.00002156    0.00000212    0.00001353
     atom   66 type  2   force =    -0.00000935   -0.00004950    0.00000515
     atom   67 type  1   force =    -0.00003278   -0.00000511   -0.00001506
     atom   68 type  2   force =    -0.00001549    0.00000963   -0.00003061
     atom   69 type  1   force =    -0.00002992    0.00001464    0.00000639
     atom   70 type  2   force =    -0.00000560    0.00001602    0.00002429
     atom   71 type  1   force =    -0.00003797   -0.00000416    0.00000354
     atom   72 type  2   force =    -0.00001534    0.00001663    0.00000097
     atom   73 type  3   force =    -0.00000455   -0.00001366    0.00001205
     atom   74 type  2   force =    -0.00004364   -0.00002368    0.00001485
     atom   75 type  3   force =    -0.00002021    0.00001463   -0.00001446
     atom   76 type  2   force =     0.00000073   -0.00004231   -0.00001685
     atom   77 type  3   force =    -0.00002137    0.00000440    0.00000457
     atom   78 type  2   force =     0.00000562    0.00000159   -0.00000198
     atom   79 type  1   force =    -0.00003165    0.00003715   -0.00002416
     atom   80 type  2   force =     0.00001317   -0.00000465   -0.00000255
     atom   81 type  1   force =    -0.00002973   -0.00004250    0.00000000
     atom   82 type  2   force =    -0.00001677    0.00002346   -0.00001360
     atom   83 type  1   force =    -0.00003159   -0.00004144   -0.00000387
     atom   84 type  2   force =     0.00004515    0.00000467   -0.00003289
     atom   85 type  1   force =    -0.00000031   -0.00003072   -0.00003643
     atom   86 type  2   force =     0.00000460    0.00003939   -0.00001072
     atom   87 type  3   force =    -0.00005664   -0.00004129   -0.00000631
     atom   88 type  2   force =    -0.00000128    0.00000267   -0.00003943
     atom   89 type  1   force =    -0.00000985    0.00001830    0.00000487
     atom   90 type  2   force =    -0.00000116   -0.00002277    0.00000361
     atom   91 type  1   force =     0.00000065   -0.00004123   -0.00002883
     atom   92 type  2   force =    -0.00000603    0.00000267   -0.00003141
     atom   93 type  3   force =    -0.00002692   -0.00000724   -0.00003239
     atom   94 type  2   force =    -0.00002546   -0.00001126    0.00001743
     atom   95 type  1   force =    -0.00002302   -0.00000129    0.00001441
     atom   96 type  2   force =     0.00001417   -0.00002240    0.00001850
     atom   97 type  1   force =     0.00002513    0.00003098   -0.00001048
     atom   98 type  2   force =    -0.00000439    0.00001047    0.00002940
     atom   99 type  1   force =     0.00000347    0.00002910   -0.00003716
     atom  100 type  2   force =    -0.00000127    0.00001332   -0.00001503
     atom  101 type  1   force =     0.00001261   -0.00003656    0.00001346
     atom  102 type  2   force =     0.00000582    0.00000810    0.00000442
     atom  103 type  3   force =     0.00000590    0.00004969    0.00001625
     atom  104 type  2   force =    -0.00001833   -0.00000773   -0.00002618
     atom  105 type  1   force =     0.00006979    0.00003581    0.00000961
     atom  106 type  2   force =    -0.00001484   -0.00004192    0.00005400
     atom  107 type  3   force =    -0.00003302   -0.00000209   -0.00000064
     atom  108 type  2   force =     0.00000521   -0.00002242   -0.00002343
     atom  109 type  3   force =     0.00002347   -0.00000167   -0.00000376
     atom  110 type  2   force =    -0.00001064    0.00003627    0.00001215
     atom  111 type  3   force =    -0.00000062   -0.00000014    0.00002102
     atom  112 type  2   force =    -0.00001326    0.00001047   -0.00001478
     atom  113 type  3   force =     0.00001416   -0.00004137    0.00004567
     atom  114 type  2   force =    -0.00000833   -0.00000708   -0.00002470
     atom  115 type  1   force =     0.00003875    0.00001179    0.00000121
     atom  116 type  2   force =     0.00001882    0.00001759   -0.00002266
     atom  117 type  1   force =     0.00001549   -0.00003526   -0.00001291
     atom  118 type  2   force =     0.00003840    0.00003135    0.00002134
     atom  119 type  1   force =     0.00004280    0.00001422   -0.00000705
     atom  120 type  2   force =     0.00000353    0.00007631    0.00000929
     atom  121 type  1   force =     0.00003654   -0.00002249    0.00003837
     atom  122 type  2   force =    -0.00000241   -0.00000587    0.00003104
     atom  123 type  3   force =    -0.00001281    0.00000493    0.00000422
     atom  124 type  2   force =     0.00001059   -0.00001404   -0.00002256
     atom  125 type  1   force =     0.00002603    0.00001699   -0.00001475
     atom  126 type  2   force =     0.00000627   -0.00000900    0.00002184
     atom  127 type  1   force =     0.00002608   -0.00002283    0.00000640
     atom  128 type  2   force =    -0.00002297   -0.00003550    0.00003922

     Total force =     0.000468     Total SCF correction =     0.000415
     SCF correction compared to forces is large: reduce conv_thr to get better values


     Computing stress (Cartesian axis) and pressure

          total   stress  (Ry/bohr**3)                   (kbar)     P=       -0.03
  -0.00000026   0.00000003  -0.00000004           -0.04        0.01       -0.01
   0.00000003  -0.00000015   0.00000007            0.01       -0.02        0.01
  -0.00000004   0.00000007  -0.00000020           -0.01        0.01       -0.03


     Writing all to output data dir ../output/TiAlN.save/
 
     init_run     :     30.97s CPU     31.98s WALL (       2 calls)
     electrons    :   7140.36s CPU   7321.20s WALL (      21 calls)
     update_pot   :     79.69s CPU     80.25s WALL (      19 calls)
     forces       :    151.15s CPU    158.54s WALL (      21 calls)
     stress       :   1689.44s CPU   1707.78s WALL (      21 calls)

     Called by init_run:
     wfcinit      :     21.09s CPU     21.57s WALL (       2 calls)
     potinit      :      2.91s CPU      3.01s WALL (       2 calls)
     hinit0       :      3.99s CPU      4.04s WALL (       2 calls)

     Called by electrons:
     c_bands      :   5591.11s CPU   5672.48s WALL (     258 calls)
     sum_band     :   1150.96s CPU   1201.56s WALL (     258 calls)
     v_of_rho     :     69.85s CPU     73.29s WALL (     269 calls)
     newd         :    171.12s CPU    212.18s WALL (     269 calls)
     PAW_pot      :     88.13s CPU     90.03s WALL (     288 calls)
     mix_rho      :     96.54s CPU     99.04s WALL (     258 calls)

     Called by c_bands:
     init_us_2    :     47.94s CPU     48.45s WALL (     537 calls)
     init_us_2:cp :     47.93s CPU     48.45s WALL (     537 calls)
     regterg      :   5402.38s CPU   5482.56s WALL (     263 calls)

     Called by *egterg:
     rdiaghg      :     70.09s CPU     70.83s WALL (    1424 calls)
     h_psi        :   3778.05s CPU   3815.69s WALL (    1460 calls)
     s_psi        :    423.33s CPU    427.16s WALL (    1460 calls)
     g_psi        :      8.25s CPU      8.34s WALL (    1195 calls)

     Called by h_psi:
     h_psi:calbec :    451.30s CPU    455.49s WALL (    1460 calls)
     vloc_psi     :   2882.17s CPU   2911.44s WALL (    1460 calls)
     add_vuspsi   :    424.16s CPU    428.19s WALL (    1460 calls)

     General routines
     calbec       :    689.54s CPU    695.97s WALL (    1842 calls)
     fft          :     62.32s CPU     63.07s WALL (    2870 calls)
     ffts         :     65.16s CPU     65.86s WALL (    3663 calls)
     fftw         :   2657.48s CPU   2683.99s WALL (  372452 calls)
 
     Parallel routines
 
     PWSCF        :      2h32m CPU      2h35m WALL

 
   This run was terminated on:  14:57:26  30Apr2026            

=------------------------------------------------------------------------------=
   JOB DONE.
=------------------------------------------------------------------------------=
