
     Program PWSCF v.7.1 starts on 29Apr2026 at 15:28:49 

     This program is part of the open-source Quantum ESPRESSO suite
     for quantum simulation of materials; please cite
         "P. Giannozzi et al., J. Phys.:Condens. Matter 21 395502 (2009);
         "P. Giannozzi et al., J. Phys.:Condens. Matter 29 465901 (2017);
         "P. Giannozzi et al., J. Chem. Phys. 152 154105 (2020);
          URL http://www.quantum-espresso.org", 
     in publications or presentations arising from this work. More details at
     http://www.quantum-espresso.org/quote

     Parallel version (MPI & OpenMP), running on      32 processor cores
     Number of MPI processes:                32
     Threads/MPI process:                     1

     MPI processes distributed on     1 nodes
     91163 MiB available memory on the printing compute node when the environment starts
 
     Reading input from TiAlN_relax.in

     Current dimensions of program PWSCF are:
     Max number of different atomic species (ntypx) = 10
     Max number of k-points (npk) = 150000
     Max angular momentum in pseudopotentials (lmaxx) =  4

     File ../output/TiAlN.update deleted, as requested

     File ../output/TiAlN.bfgs deleted, as requested
     file Al.pbe-n-kjpaw_psl.1.0.0.UPF: wavefunction(s)  3S 3P renormalized
     file N.pbe-n-kjpaw_psl.1.0.0.UPF: wavefunction(s)  2S renormalized
     file Ti.pbe-spn-kjpaw_psl.1.0.0.UPF: wavefunction(s)  3S 3P 3D renormalized
 
     K-points division:     npool     =       4
     R & G space division:  proc/nbgrp/npool/nimage =       8
     Subspace diagonalization in iterative solution of the eigenvalue problem:
     one sub-group per band group will be used
     scalapack distributed-memory algorithm (size of sub-group:  2*  2 procs)

 
     Parallelization info
     --------------------
     sticks:   dense  smooth     PW     G-vecs:    dense   smooth      PW
     Min        1416    1416    367                99490    99490   13251
     Max        1417    1417    368                99492    99492   13254
     Sum       11335   11335   2941               795927   795927  106019
 
     Using Slab Decomposition
 


     bravais-lattice index     =            0
     lattice parameter (alat)  =      22.6626  a.u.
     unit-cell volume          =    8230.2713 (a.u.)^3
     number of atoms/cell      =          128
     number of atomic types    =            3
     number of electrons       =       800.00
     number of Kohn-Sham states=          480
     kinetic-energy cutoff     =      80.0000  Ry
     charge density cutoff     =     320.0000  Ry
     scf convergence threshold =      1.0E-06
     mixing beta               =       0.2000
     number of iterations used =            8  local-TF  mixing
     energy convergence thresh.=      1.0E-05
     force convergence thresh. =      1.0E-04
     press convergence thresh. =      5.0E-01
     Exchange-correlation= SLA  PW   PBX  PBC
                           (   1   4   3   4   0   0   0)
     nstep                     =           50


     celldm(1)=  22.662599  celldm(2)=   0.000000  celldm(3)=   0.000000
     celldm(4)=   0.000000  celldm(5)=   0.000000  celldm(6)=   0.000000

     crystal axes: (cart. coord. in units of alat)
               a(1) = (   1.000000   0.000000   0.000000 )  
               a(2) = (   0.500000   0.866025   0.000000 )  
               a(3) = (   0.500000   0.288675   0.816497 )  

     reciprocal axes: (cart. coord. in units 2 pi/alat)
               b(1) = (  1.000000 -0.577350 -0.408248 )  
               b(2) = (  0.000000  1.154701 -0.408248 )  
               b(3) = (  0.000000  0.000000  1.224745 )  


     PseudoPot. # 1 for Al read from file:
     ../../pseudo/Al.pbe-n-kjpaw_psl.1.0.0.UPF
     MD5 check sum: 502b6b27b9c6270cab5dd1084b96fa6d
     Pseudo is Projector augmented-wave + core cor, Zval =  3.0
     Generated using &quot;atomic&quot; code by A. Dal Corso  v.6.3
     Shape of augmentation charge: PSQ
     Using radial grid of 1135 points,  6 beta functions with: 
                l(1) =   0
                l(2) =   0
                l(3) =   1
                l(4) =   1
                l(5) =   2
                l(6) =   2
     Q(r) pseudized with 0 coefficients 


     PseudoPot. # 2 for N  read from file:
     ../../pseudo/N.pbe-n-kjpaw_psl.1.0.0.UPF
     MD5 check sum: 14c48229446f9f2d411169a3abcbc3fa
     Pseudo is Projector augmented-wave + core cor, Zval =  5.0
     Generated using &quot;atomic&quot; code by A. Dal Corso  v.6.3
     Shape of augmentation charge: PSQ
     Using radial grid of 1085 points,  4 beta functions with: 
                l(1) =   0
                l(2) =   0
                l(3) =   1
                l(4) =   1
     Q(r) pseudized with 0 coefficients 


     PseudoPot. # 3 for Ti read from file:
     ../../pseudo/Ti.pbe-spn-kjpaw_psl.1.0.0.UPF
     MD5 check sum: 01f69b0d8ba4438b2e03ac6ea4af1c0b
     Pseudo is Projector augmented-wave + core cor, Zval = 12.0
     Generated using &quot;atomic&quot; code by A. Dal Corso  v.6.2.2
     Shape of augmentation charge: PSQ
     Using radial grid of 1177 points,  6 beta functions with: 
                l(1) =   0
                l(2) =   0
                l(3) =   1
                l(4) =   1
                l(5) =   2
                l(6) =   2
     Q(r) pseudized with 0 coefficients 


     atomic species   valence    mass     pseudopotential
        Al             3.00    26.98200     Al( 1.00)
        N              5.00    14.00700     N ( 1.00)
        Ti            12.00    47.86700     Ti( 1.00)

     No symmetry found



   Cartesian axes

     site n.     atom                  positions (alat units)
         1           Ti  tau(   1) = (   0.0000000   0.0000000   0.0000000  )
         2           N   tau(   2) = (   1.0000000   0.1443376   0.1020621  )
         3           Ti  tau(   3) = (   0.1250000   0.0721688   0.2041241  )
         4           N   tau(   4) = (   1.1250000   0.2165064   0.3061862  )
         5           Al  tau(   5) = (   0.2500000   0.1443376   0.4082483  )
         6           N   tau(   6) = (   1.2500000   0.2886751   0.5103104  )
         7           Ti  tau(   7) = (   0.3750000   0.2165064   0.6123724  )
         8           N   tau(   8) = (   1.3750000   0.3608439   0.7144345  )
         9           Ti  tau(   9) = (   0.1250000   0.2165064   0.0000000  )
        10           N   tau(  10) = (   1.1250000   0.3608439   0.1020621  )
        11           Ti  tau(  11) = (   0.2500000   0.2886751   0.2041241  )
        12           N   tau(  12) = (   1.2500000   0.4330127   0.3061862  )
        13           Al  tau(  13) = (   0.3750000   0.3608439   0.4082483  )
        14           N   tau(  14) = (   1.3750000   0.5051815   0.5103104  )
        15           Ti  tau(  15) = (   0.5000000   0.4330127   0.6123724  )
        16           N   tau(  16) = (   1.5000000   0.5773503   0.7144345  )
        17           Ti  tau(  17) = (   0.2500000   0.4330127   0.0000000  )
        18           N   tau(  18) = (   1.2500000   0.5773503   0.1020621  )
        19           Ti  tau(  19) = (   0.3750000   0.5051815   0.2041241  )
        20           N   tau(  20) = (   1.3750000   0.6495191   0.3061862  )
        21           Ti  tau(  21) = (   0.5000000   0.5773503   0.4082483  )
        22           N   tau(  22) = (   1.5000000   0.7216878   0.5103104  )
        23           Al  tau(  23) = (   1.6250000   0.6495191   0.6123724  )
        24           N   tau(  24) = (   1.6250000   0.7938566   0.7144345  )
        25           Al  tau(  25) = (   0.3750000   0.6495191   0.0000000  )
        26           N   tau(  26) = (   1.3750000   0.7938566   0.1020621  )
        27           Ti  tau(  27) = (   0.5000000   0.7216878   0.2041241  )
        28           N   tau(  28) = (   1.5000000   0.8660254   0.3061862  )
        29           Ti  tau(  29) = (   0.6250000   0.7938566   0.4082483  )
        30           N   tau(  30) = (   1.6250000   0.9381942   0.5103104  )
        31           Al  tau(  31) = (   1.7500000   0.8660254   0.6123724  )
        32           N   tau(  32) = (   1.7500000   1.0103630   0.7144345  )
        33           Ti  tau(  33) = (   0.2500000   0.0000000   0.0000000  )
        34           N   tau(  34) = (   0.2500000   0.1443376   0.1020621  )
        35           Ti  tau(  35) = (   0.3750000   0.0721688   0.2041241  )
        36           N   tau(  36) = (   0.3750000   0.2165064   0.3061862  )
        37           Al  tau(  37) = (   0.5000000   0.1443376   0.4082483  )
        38           N   tau(  38) = (   0.5000000   0.2886751   0.5103104  )
        39           Ti  tau(  39) = (   0.6250000   0.2165064   0.6123724  )
        40           N   tau(  40) = (   0.6250000   0.3608439   0.7144345  )
        41           Ti  tau(  41) = (   0.3750000   0.2165064   0.0000000  )
        42           N   tau(  42) = (   0.3750000   0.3608439   0.1020621  )
        43           Ti  tau(  43) = (   0.5000000   0.2886751   0.2041241  )
        44           N   tau(  44) = (   0.5000000   0.4330127   0.3061862  )
        45           Al  tau(  45) = (   0.6250000   0.3608439   0.4082483  )
        46           N   tau(  46) = (   0.6250000   0.5051815   0.5103104  )
        47           Ti  tau(  47) = (   0.7500000   0.4330127   0.6123724  )
        48           N   tau(  48) = (   0.7500000   0.5773503   0.7144345  )
        49           Al  tau(  49) = (   0.5000000   0.4330127   0.0000000  )
        50           N   tau(  50) = (   0.5000000   0.5773503   0.1020621  )
        51           Ti  tau(  51) = (   0.6250000   0.5051815   0.2041241  )
        52           N   tau(  52) = (   0.6250000   0.6495191   0.3061862  )
        53           Al  tau(  53) = (   0.7500000   0.5773503   0.4082483  )
        54           N   tau(  54) = (   0.7500000   0.7216878   0.5103104  )
        55           Ti  tau(  55) = (   0.8750000   0.6495191   0.6123724  )
        56           N   tau(  56) = (   0.8750000   0.7938566   0.7144345  )
        57           Al  tau(  57) = (   0.6250000   0.6495191   0.0000000  )
        58           N   tau(  58) = (   0.6250000   0.7938566   0.1020621  )
        59           Ti  tau(  59) = (   0.7500000   0.7216878   0.2041241  )
        60           N   tau(  60) = (   0.7500000   0.8660254   0.3061862  )
        61           Ti  tau(  61) = (   0.8750000   0.7938566   0.4082483  )
        62           N   tau(  62) = (   0.8750000   0.9381942   0.5103104  )
        63           Al  tau(  63) = (   1.0000000   0.8660254   0.6123724  )
        64           N   tau(  64) = (   1.0000000   1.0103630   0.7144345  )
        65           Al  tau(  65) = (   0.5000000   0.0000000   0.0000000  )
        66           N   tau(  66) = (   0.5000000   0.1443376   0.1020621  )
        67           Al  tau(  67) = (   0.6250000   0.0721688   0.2041241  )
        68           N   tau(  68) = (   0.6250000   0.2165064   0.3061862  )
        69           Al  tau(  69) = (   0.7500000   0.1443376   0.4082483  )
        70           N   tau(  70) = (   0.7500000   0.2886751   0.5103104  )
        71           Al  tau(  71) = (   0.8750000   0.2165064   0.6123724  )
        72           N   tau(  72) = (   0.8750000   0.3608439   0.7144345  )
        73           Ti  tau(  73) = (   0.6250000   0.2165064   0.0000000  )
        74           N   tau(  74) = (   0.6250000   0.3608439   0.1020621  )
        75           Ti  tau(  75) = (   0.7500000   0.2886751   0.2041241  )
        76           N   tau(  76) = (   0.7500000   0.4330127   0.3061862  )
        77           Ti  tau(  77) = (   0.8750000   0.3608439   0.4082483  )
        78           N   tau(  78) = (   0.8750000   0.5051815   0.5103104  )
        79           Al  tau(  79) = (   1.0000000   0.4330127   0.6123724  )
        80           N   tau(  80) = (   1.0000000   0.5773503   0.7144345  )
        81           Al  tau(  81) = (   0.7500000   0.4330127   0.0000000  )
        82           N   tau(  82) = (   0.7500000   0.5773503   0.1020621  )
        83           Al  tau(  83) = (   0.8750000   0.5051815   0.2041241  )
        84           N   tau(  84) = (   0.8750000   0.6495191   0.3061862  )
        85           Al  tau(  85) = (   1.0000000   0.5773503   0.4082483  )
        86           N   tau(  86) = (   1.0000000   0.7216878   0.5103104  )
        87           Ti  tau(  87) = (   1.1250000   0.6495191   0.6123724  )
        88           N   tau(  88) = (   1.1250000   0.7938566   0.7144345  )
        89           Al  tau(  89) = (   0.8750000   0.6495191   0.0000000  )
        90           N   tau(  90) = (   0.8750000   0.7938566   0.1020621  )
        91           Al  tau(  91) = (   1.0000000   0.7216878   0.2041241  )
        92           N   tau(  92) = (   1.0000000   0.8660254   0.3061862  )
        93           Ti  tau(  93) = (   1.1250000   0.7938566   0.4082483  )
        94           N   tau(  94) = (   1.1250000   0.9381942   0.5103104  )
        95           Al  tau(  95) = (   1.2500000   0.8660254   0.6123724  )
        96           N   tau(  96) = (   1.2500000   1.0103630   0.7144345  )
        97           Al  tau(  97) = (   0.7500000   0.0000000   0.0000000  )
        98           N   tau(  98) = (   0.7500000   0.1443376   0.1020621  )
        99           Al  tau(  99) = (   0.8750000   0.0721688   0.2041241  )
       100           N   tau( 100) = (   0.8750000   0.2165064   0.3061862  )
       101           Al  tau( 101) = (   1.0000000   0.1443376   0.4082483  )
       102           N   tau( 102) = (   1.0000000   0.2886751   0.5103104  )
       103           Ti  tau( 103) = (   1.6250000   1.0825318   0.6123724  )
       104           N   tau( 104) = (   1.1250000   0.3608439   0.7144345  )
       105           Al  tau( 105) = (   0.8750000   0.2165064   0.0000000  )
       106           N   tau( 106) = (   0.8750000   0.3608439   0.1020621  )
       107           Ti  tau( 107) = (   1.0000000   0.2886751   0.2041241  )
       108           N   tau( 108) = (   1.0000000   0.4330127   0.3061862  )
       109           Ti  tau( 109) = (   1.1250000   0.3608439   0.4082483  )
       110           N   tau( 110) = (   1.1250000   0.5051815   0.5103104  )
       111           Ti  tau( 111) = (   1.2500000   0.4330127   0.6123724  )
       112           N   tau( 112) = (   1.2500000   0.5773503   0.7144345  )
       113           Ti  tau( 113) = (   1.0000000   0.4330127   0.0000000  )
       114           N   tau( 114) = (   1.0000000   0.5773503   0.1020621  )
       115           Al  tau( 115) = (   1.1250000   0.5051815   0.2041241  )
       116           N   tau( 116) = (   1.1250000   0.6495191   0.3061862  )
       117           Al  tau( 117) = (   1.2500000   0.5773503   0.4082483  )
       118           N   tau( 118) = (   1.2500000   0.7216878   0.5103104  )
       119           Al  tau( 119) = (   1.3750000   0.6495191   0.6123724  )
       120           N   tau( 120) = (   1.3750000   0.7938566   0.7144345  )
       121           Al  tau( 121) = (   1.1250000   0.6495191   0.0000000  )
       122           N   tau( 122) = (   1.1250000   0.7938566   0.1020621  )
       123           Ti  tau( 123) = (   1.2500000   0.7216878   0.2041241  )
       124           N   tau( 124) = (   1.2500000   0.8660254   0.3061862  )
       125           Al  tau( 125) = (   1.3750000   0.7938566   0.4082483  )
       126           N   tau( 126) = (   1.3750000   0.9381942   0.5103104  )
       127           Al  tau( 127) = (   1.5000000   0.8660254   0.6123724  )
       128           N   tau( 128) = (   1.5000000   1.0103630   0.7144345  )

     number of k points=     8  Gaussian smearing, width (Ry)=  0.0050
                       cart. coord. in units 2pi/alat
        k(    1) = (   0.0000000   0.0000000   0.0000000), wk =   0.2500000
        k(    2) = (   0.0000000   0.0000000  -0.6123724), wk =   0.2500000
        k(    3) = (   0.0000000  -0.5773503   0.2041241), wk =   0.2500000
        k(    4) = (   0.0000000  -0.5773503  -0.4082483), wk =   0.2500000
        k(    5) = (   0.5000000   0.2886751   0.2041241), wk =   0.2500000
        k(    6) = (  -0.5000000   0.2886751   0.2041241), wk =   0.2500000
        k(    7) = (   0.5000000   0.2886751  -0.4082483), wk =   0.2500000
        k(    8) = (  -0.5000000   0.2886751  -0.4082483), wk =   0.2500000

     Dense  grid:   795927 G-vectors     FFT dimensions: ( 135, 135, 135)

     Estimated max dynamical RAM per process >       1.21 GB

     Estimated total dynamical RAM >      38.03 GB

     Check: negative core charge=   -0.000008

     Initial potential from superposition of free atoms

     starting charge     799.8789, renormalised to     800.0000
     Starting wfcs are  704 randomized atomic wfcs
     Checking if some PAW data can be deallocated... 

     total cpu time spent up to now is       45.1 secs

     Self-consistent Calculation

     iteration #  1     ecut=    80.00 Ry     beta= 0.20
     Davidson diagonalization with overlap
     ethr =  1.00E-02,  avg # of iterations =  2.0

     total cpu time spent up to now is      130.7 secs

     total energy              =   -8964.78027766 Ry
     estimated scf accuracy    <      36.29908354 Ry

     iteration #  2     ecut=    80.00 Ry     beta= 0.20
     Davidson diagonalization with overlap
     ethr =  4.54E-03,  avg # of iterations =  1.0

     total cpu time spent up to now is      201.2 secs

     total energy              =   -8956.26503281 Ry
     estimated scf accuracy    <      20.32831440 Ry

     iteration #  3     ecut=    80.00 Ry     beta= 0.20
     Davidson diagonalization with overlap
     ethr =  2.54E-03,  avg # of iterations =  2.9

     total cpu time spent up to now is      294.8 secs

     total energy              =   -8960.87749077 Ry
     estimated scf accuracy    <       1.07400480 Ry

     iteration #  4     ecut=    80.00 Ry     beta= 0.20
     Davidson diagonalization with overlap
     ethr =  1.34E-04,  avg # of iterations =  7.6

     total cpu time spent up to now is      403.8 secs

     total energy              =   -8961.07847302 Ry
     estimated scf accuracy    <       1.01261119 Ry

     iteration #  5     ecut=    80.00 Ry     beta= 0.20
     Davidson diagonalization with overlap
     ethr =  1.27E-04,  avg # of iterations =  1.0

     total cpu time spent up to now is      474.3 secs

     total energy              =   -8960.84080088 Ry
     estimated scf accuracy    <       0.73512620 Ry

     iteration #  6     ecut=    80.00 Ry     beta= 0.20
     Davidson diagonalization with overlap
     ethr =  9.19E-05,  avg # of iterations =  2.0

     total cpu time spent up to now is      560.6 secs

     total energy              =   -8960.92441250 Ry
     estimated scf accuracy    <       0.12871275 Ry

     iteration #  7     ecut=    80.00 Ry     beta= 0.20
     Davidson diagonalization with overlap
     ethr =  1.61E-05,  avg # of iterations =  2.1

     total cpu time spent up to now is      641.9 secs

     total energy              =   -8960.91424092 Ry
     estimated scf accuracy    <       0.05510145 Ry

     iteration #  8     ecut=    80.00 Ry     beta= 0.20
     Davidson diagonalization with overlap
     ethr =  6.89E-06,  avg # of iterations =  3.2

     total cpu time spent up to now is      752.9 secs

     total energy              =   -8960.91957671 Ry
     estimated scf accuracy    <       0.08414655 Ry

     iteration #  9     ecut=    80.00 Ry     beta= 0.20
     Davidson diagonalization with overlap
     ethr =  6.89E-06,  avg # of iterations =  2.0

     total cpu time spent up to now is      830.8 secs

     total energy              =   -8960.92022645 Ry
     estimated scf accuracy    <       0.01441865 Ry

     iteration # 10     ecut=    80.00 Ry     beta= 0.20
     Davidson diagonalization with overlap
     ethr =  1.80E-06,  avg # of iterations = 14.8

     total cpu time spent up to now is      962.9 secs

     total energy              =   -8960.92365004 Ry
     estimated scf accuracy    <       0.00334339 Ry

     iteration # 11     ecut=    80.00 Ry     beta= 0.20
     Davidson diagonalization with overlap
     ethr =  4.18E-07,  avg # of iterations =  2.0

     total cpu time spent up to now is     1045.1 secs

     total energy              =   -8960.92373442 Ry
     estimated scf accuracy    <       0.00067523 Ry

     iteration # 12     ecut=    80.00 Ry     beta= 0.20
     Davidson diagonalization with overlap
     ethr =  8.44E-08,  avg # of iterations = 10.2

     total cpu time spent up to now is     1169.4 secs

     total energy              =   -8960.92384477 Ry
     estimated scf accuracy    <       0.00059358 Ry

     iteration # 13     ecut=    80.00 Ry     beta= 0.20
     Davidson diagonalization with overlap
     ethr =  7.42E-08,  avg # of iterations =  2.0

     total cpu time spent up to now is     1245.6 secs

     total energy              =   -8960.92381388 Ry
     estimated scf accuracy    <       0.00015702 Ry

     iteration # 14     ecut=    80.00 Ry     beta= 0.20
     Davidson diagonalization with overlap
     ethr =  1.96E-08,  avg # of iterations =  4.8

     total cpu time spent up to now is     1343.1 secs

     total energy              =   -8960.92384753 Ry
     estimated scf accuracy    <       0.00005289 Ry

     iteration # 15     ecut=    80.00 Ry     beta= 0.20
     Davidson diagonalization with overlap
     ethr =  6.61E-09,  avg # of iterations =  2.0

     total cpu time spent up to now is     1421.0 secs

     total energy              =   -8960.92384648 Ry
     estimated scf accuracy    <       0.00001791 Ry

     iteration # 16     ecut=    80.00 Ry     beta= 0.20
     Davidson diagonalization with overlap
     ethr =  2.24E-09,  avg # of iterations =  2.0

     total cpu time spent up to now is     1505.7 secs

     total energy              =   -8960.92384761 Ry
     estimated scf accuracy    <       0.00000645 Ry

     iteration # 17     ecut=    80.00 Ry     beta= 0.20
     Davidson diagonalization with overlap
     ethr =  8.06E-10,  avg # of iterations =  4.5

     total cpu time spent up to now is     1588.6 secs

     total energy              =   -8960.92384688 Ry
     estimated scf accuracy    <       0.00000381 Ry

     iteration # 18     ecut=    80.00 Ry     beta= 0.20
     Davidson diagonalization with overlap
     ethr =  4.76E-10,  avg # of iterations =  4.6

     total cpu time spent up to now is     1674.1 secs

     End of self-consistent calculation

          k = 0.0000 0.0000 0.0000 ( 99293 PWs)   bands (ev):

   -43.6950 -43.5727 -43.5379 -43.5354 -43.5120 -43.5002 -43.4799 -43.4607
   -43.4572 -43.4477 -43.4416 -43.4373 -43.4341 -43.4242 -43.4214 -43.4080
   -43.4034 -43.3975 -43.3918 -43.3915 -43.3762 -43.3696 -43.3644 -43.3599
   -43.3558 -43.3490 -43.3380 -43.3227 -43.3183 -43.3010 -43.2874 -43.2562
   -20.1246 -20.0184 -20.0112 -20.0067 -20.0037 -19.9978 -19.9912 -19.9801
   -19.9715 -19.9565 -19.9483 -19.9400 -19.9360 -19.9340 -19.9286 -19.9211
   -19.9148 -19.9117 -19.9023 -19.8968 -19.8958 -19.8888 -19.8838 -19.8765
   -19.8669 -19.8655 -19.8611 -19.8598 -19.8476 -19.8405 -19.8353 -19.8339
   -19.8304 -19.8263 -19.8218 -19.8112 -19.8085 -19.8035 -19.7937 -19.7874
   -19.7822 -19.7742 -19.7672 -19.7629 -19.7608 -19.7547 -19.7542 -19.7447
   -19.7375 -19.7277 -19.7244 -19.7240 -19.7168 -19.7143 -19.7074 -19.7030
   -19.6960 -19.6905 -19.6878 -19.6842 -19.6785 -19.6768 -19.6726 -19.6690
   -19.6645 -19.6527 -19.6517 -19.6428 -19.6373 -19.6301 -19.6282 -19.6218
   -19.6184 -19.6091 -19.6076 -19.6021 -19.5975 -19.5926 -19.5861 -19.5806
   -19.5753 -19.5723 -19.5645 -19.5611 -19.5578 -19.5545 -19.5479 -19.5464
   -19.5408 -19.5291 -19.5257 -19.5183 -19.5036 -19.4986 -19.4772 -19.4608
    -3.6446  -2.7723  -2.7232  -2.6778  -2.6348  -2.5952  -2.5288  -2.4726
    -2.3828  -2.3681  -2.2598  -2.2085  -2.1488  -2.0835  -1.9755  -1.5055
    -1.4924  -1.4698  -1.4385  -1.4208  -1.3961  -1.3763  -1.3497  -1.3142
    -1.2795  -1.2592  -1.2380  -1.2177  -1.1954  -1.1817  -1.1573  -1.1492
    -1.1254  -1.1156  -1.1000  -1.0835  -1.0740  -1.0454  -1.0328  -1.0130
    -1.0015  -0.9871  -0.9674  -0.9533  -0.9305  -0.9129  -0.9036  -0.8752
    -0.8686  -0.8608  -0.8439  -0.8150  -0.8029  -0.7715  -0.7416  -0.7281
    -0.7021  -0.6958  -0.6377  -0.6361  -0.6213  -0.6003  -0.5697  -0.5591
     4.8084   4.9454   5.2519   5.3663   5.9022   5.9544   5.9656   6.0251
     6.0774   6.0822   6.1172   6.1897   6.2032   6.2474   6.3386   6.3802
     6.4176   6.4692   6.4864   6.5510   6.5564   6.5989   6.6339   6.6772
     6.7082   6.7880   6.8283   6.8974   6.9649   6.9865   7.0202   7.0814
     7.1415   7.1695   7.2147   7.2872   7.3285   7.3690   7.4114   7.4420
     7.5022   7.5656   7.6328   7.6477   7.6845   7.7259   7.7420   7.7816
     7.8542   7.8981   7.9340   7.9694   7.9922   8.0363   8.0750   8.0779
     8.1013   8.1271   8.1829   8.2232   8.2843   8.3337   8.3464   8.3634
     8.3826   8.3982   8.4261   8.4567   8.4746   8.5329   8.5381   8.5526
     8.5672   8.5869   8.6289   8.6677   8.6848   8.7001   8.7082   8.7361
     8.7730   8.8024   8.8249   8.8691   8.8710   8.9222   8.9413   8.9579
     8.9777   9.0039   9.0143   9.0415   9.0530   9.0714   9.0841   9.1112
     9.1447   9.1635   9.1734   9.2001   9.2201   9.2332   9.2639   9.2949
     9.3189   9.3358   9.3579   9.3697   9.4167   9.4212   9.4449   9.4599
     9.4788   9.5024   9.5463   9.5668   9.5767   9.6685   9.7012   9.7250
     9.7515   9.7591   9.8070   9.8221   9.8666   9.8847   9.9185   9.9698
    10.0051  10.0418  10.0694  10.0746  10.0891  10.1117  10.1442  10.1754
    10.2305  10.2340  10.2488  10.2559  10.3077  10.3424  10.3638  10.3750
    10.4011  10.4230  10.4466  10.4732  10.4889  10.5305  10.5384  10.5698
    10.6045  10.6302  10.6491  10.6540  10.6845  10.7022  10.7290  10.7645
    10.8014  10.8404  10.8576  10.8983  10.9110  10.9301  10.9374  10.9851
    10.9951  11.0037  11.0194  11.0401  11.0606  11.0803  11.0975  11.1115
    11.1230  11.1435  11.1670  11.1809  11.2125  11.2393  11.2482  11.2537
    11.3047  11.3123  11.3349  11.3595  11.3679  12.2590  12.2606  12.2763
    12.6407  12.6883  12.7184  13.3874  13.4270  13.5560  13.5767  13.5971
    13.8671  14.1916  14.3330  14.3513  14.3770  14.4213  14.4586  14.4873
    14.5425  14.5651  14.5920  14.6324  14.6578  14.7196  14.7267  14.7692
    14.8037  14.8304  14.8371  14.8717  14.9014  14.9117  14.9541  15.0167
    15.0259  15.0530  15.0857  15.1275  15.1875  15.2372  15.3002  15.3310
    15.3509  15.3579  15.4010  15.4092  15.4317  15.4465  15.4749  15.5131
    15.5264  15.5515  15.5923  15.6288  15.6712  15.6729  15.7091  15.7193
    15.7658  15.7841  15.7855  15.8444  15.8878  15.8949  15.9194  15.9489
    15.9671  15.9921  16.0365  16.0494  16.0632  16.0795  16.1028  16.1223
    16.1449  16.1521  16.1654  16.1938  16.2082  16.2343  16.2422  16.2464
    16.2639  16.2788  16.2805  16.2967  16.3130  16.3142  16.3249  16.3463
    16.3649  16.3811  16.3935  16.4063  16.4353  16.4638  16.4803  16.5077

          k = 0.0000 0.0000-0.6124 ( 99520 PWs)   bands (ev):

   -43.6950 -43.5727 -43.5379 -43.5354 -43.5119 -43.5002 -43.4798 -43.4613
   -43.4572 -43.4459 -43.4426 -43.4371 -43.4345 -43.4239 -43.4216 -43.4085
   -43.4034 -43.3987 -43.3916 -43.3894 -43.3769 -43.3690 -43.3645 -43.3604
   -43.3557 -43.3490 -43.3379 -43.3236 -43.3171 -43.3016 -43.2872 -43.2562
   -20.1244 -20.0168 -20.0069 -20.0030 -19.9976 -19.9932 -19.9891 -19.9765
   -19.9700 -19.9588 -19.9528 -19.9423 -19.9360 -19.9318 -19.9246 -19.9186
   -19.9156 -19.9098 -19.9042 -19.8973 -19.8944 -19.8941 -19.8906 -19.8859
   -19.8770 -19.8670 -19.8648 -19.8594 -19.8562 -19.8510 -19.8369 -19.8333
   -19.8285 -19.8245 -19.8182 -19.8176 -19.8149 -19.8023 -19.7995 -19.7904
   -19.7870 -19.7756 -19.7735 -19.7638 -19.7608 -19.7491 -19.7419 -19.7416
   -19.7360 -19.7352 -19.7291 -19.7204 -19.7150 -19.7102 -19.7017 -19.6979
   -19.6964 -19.6882 -19.6836 -19.6813 -19.6753 -19.6705 -19.6672 -19.6623
   -19.6575 -19.6552 -19.6465 -19.6433 -19.6311 -19.6283 -19.6252 -19.6183
   -19.6102 -19.6079 -19.6016 -19.5994 -19.5979 -19.5917 -19.5886 -19.5817
   -19.5807 -19.5759 -19.5732 -19.5644 -19.5614 -19.5599 -19.5523 -19.5468
   -19.5391 -19.5300 -19.5281 -19.5182 -19.5073 -19.5016 -19.4777 -19.4611
    -3.4215  -3.3184  -2.8278  -2.7681  -2.6707  -2.5969  -2.5095  -2.4145
    -2.1637  -2.0960  -2.0525  -2.0326  -1.9684  -1.9374  -1.7620  -1.7199
    -1.6607  -1.6321  -1.6187  -1.5379  -1.4603  -1.4300  -1.4223  -1.3841
    -1.3332  -1.3073  -1.2820  -1.2505  -1.2344  -1.2169  -1.1873  -1.1691
    -1.1339  -1.1296  -1.1038  -1.0886  -1.0494  -1.0469  -1.0134  -1.0027
    -0.9844  -0.9800  -0.9445  -0.9271  -0.9208  -0.8986  -0.8747  -0.8617
    -0.8411  -0.8289  -0.7920  -0.7865  -0.7629  -0.7602  -0.7325  -0.7042
    -0.6966  -0.6597  -0.6533  -0.6482  -0.6099  -0.6033  -0.5634  -0.5166
     5.0334   5.2927   5.3575   5.5021   5.5585   5.6996   5.8893   5.9294
     5.9610   6.0180   6.0786   6.1337   6.2452   6.2906   6.3776   6.3952
     6.4333   6.5279   6.5690   6.5757   6.6053   6.6631   6.7295   6.7448
     6.7480   6.8118   6.8577   6.8751   6.9141   6.9386   6.9849   7.0189
     7.0538   7.0838   7.1404   7.2052   7.2437   7.2709   7.2900   7.3322
     7.3912   7.4208   7.4803   7.5303   7.5797   7.6398   7.6749   7.7165
     7.7316   7.7810   7.7879   7.8592   7.8627   7.9845   8.0187   8.0405
     8.0899   8.0951   8.1270   8.2209   8.2281   8.2498   8.2541   8.3052
     8.3644   8.3858   8.4500   8.4694   8.4749   8.5162   8.5410   8.5586
     8.5968   8.6471   8.7072   8.7306   8.7841   8.8336   8.8697   8.9016
     8.9286   8.9342   8.9563   8.9946   9.0154   9.0270   9.0894   9.1028
     9.1398   9.1584   9.1943   9.2005   9.2086   9.2256   9.2659   9.2861
     9.3094   9.3232   9.3362   9.3475   9.3895   9.4055   9.4401   9.4419
     9.4677   9.4817   9.4932   9.5274   9.5408   9.5738   9.5763   9.6000
     9.6226   9.6657   9.6789   9.7100   9.7286   9.7378   9.7554   9.7697
     9.7723   9.8127   9.8252   9.8561   9.8624   9.9119   9.9256   9.9354
     9.9650   9.9821   9.9854   9.9970  10.0367  10.0746  10.0996  10.1037
    10.1487  10.1678  10.1778  10.1920  10.2323  10.2446  10.2608  10.2713
    10.3145  10.3411  10.3661  10.3958  10.4244  10.4334  10.4635  10.4925
    10.5057  10.5249  10.5478  10.5638  10.5772  10.5943  10.6041  10.6330
    10.6574  10.6770  10.6999  10.7142  10.7382  10.7826  10.7937  10.8171
    10.8740  10.8867  10.9182  10.9363  10.9471  10.9686  10.9913  10.9965
    11.0339  11.0550  11.0807  11.1304  11.1542  11.1893  11.2077  11.2273
    11.2542  11.2840  11.3452  11.4096  11.8009  11.8192  11.8701  11.8777
    13.2001  13.2648  13.2832  13.4808  13.5019  13.5750  13.6004  13.7745
    13.9050  13.9238  14.0652  14.0753  14.1936  14.3277  14.3960  14.4663
    14.5397  14.5969  14.6776  14.7134  14.7625  14.7661  14.8292  14.8747
    14.9162  14.9416  14.9627  14.9877  15.0010  15.0085  15.0504  15.0660
    15.0824  15.1299  15.1458  15.1976  15.2172  15.2249  15.2581  15.3202
    15.3414  15.3640  15.4265  15.4496  15.4617  15.4932  15.5538  15.5764
    15.6070  15.6265  15.6341  15.6567  15.6730  15.6809  15.6953  15.7257
    15.7444  15.7658  15.7850  15.8313  15.8410  15.8750  15.8834  15.8915
    15.9011  15.9317  15.9429  15.9645  15.9756  15.9970  16.0084  16.0257
    16.0572  16.0834  16.0966  16.1347  16.1441  16.1629  16.2148  16.2203
    16.2335  16.2547  16.2639  16.2767  16.2911  16.3306  16.3604  16.3911
    16.4005  16.4458  16.4592  16.4702  16.4922  16.5002  16.5137  16.5310

          k = 0.0000-0.5774 0.2041 ( 99520 PWs)   bands (ev):

   -43.6950 -43.5727 -43.5379 -43.5354 -43.5119 -43.5002 -43.4799 -43.4613
   -43.4572 -43.4459 -43.4424 -43.4371 -43.4348 -43.4240 -43.4215 -43.4084
   -43.4035 -43.3988 -43.3921 -43.3883 -43.3770 -43.3696 -43.3642 -43.3603
   -43.3559 -43.3490 -43.3380 -43.3226 -43.3183 -43.3010 -43.2874 -43.2562
   -20.1246 -20.0153 -20.0079 -20.0059 -19.9971 -19.9930 -19.9823 -19.9735
   -19.9696 -19.9601 -19.9503 -19.9450 -19.9344 -19.9322 -19.9285 -19.9223
   -19.9133 -19.9081 -19.9011 -19.8968 -19.8948 -19.8938 -19.8903 -19.8873
   -19.8750 -19.8685 -19.8621 -19.8615 -19.8540 -19.8470 -19.8435 -19.8393
   -19.8315 -19.8298 -19.8261 -19.8227 -19.8087 -19.8049 -19.7998 -19.7860
   -19.7820 -19.7709 -19.7698 -19.7660 -19.7631 -19.7617 -19.7469 -19.7428
   -19.7340 -19.7286 -19.7258 -19.7204 -19.7157 -19.7096 -19.7062 -19.6982
   -19.6907 -19.6845 -19.6830 -19.6804 -19.6764 -19.6693 -19.6670 -19.6648
   -19.6544 -19.6533 -19.6446 -19.6419 -19.6335 -19.6259 -19.6221 -19.6189
   -19.6150 -19.6060 -19.6040 -19.6013 -19.5970 -19.5912 -19.5901 -19.5816
   -19.5809 -19.5725 -19.5720 -19.5705 -19.5580 -19.5565 -19.5505 -19.5433
   -19.5376 -19.5333 -19.5257 -19.5185 -19.5054 -19.5023 -19.4781 -19.4702
    -3.4713  -3.2192  -2.8447  -2.7550  -2.7098  -2.6620  -2.5509  -2.4074
    -2.1546  -2.0767  -2.0238  -1.9765  -1.9235  -1.8899  -1.7522  -1.7114
    -1.6562  -1.6410  -1.6212  -1.5899  -1.4818  -1.4722  -1.4354  -1.3755
    -1.3412  -1.3161  -1.2848  -1.2773  -1.2496  -1.2278  -1.1971  -1.1631
    -1.1362  -1.1218  -1.0873  -1.0688  -1.0394  -1.0325  -1.0265  -1.0180
    -1.0007  -0.9827  -0.9729  -0.9266  -0.9048  -0.8886  -0.8647  -0.8452
    -0.8352  -0.8067  -0.7811  -0.7734  -0.7615  -0.7572  -0.7295  -0.7184
    -0.6849  -0.6754  -0.6536  -0.6471  -0.6156  -0.5985  -0.5656  -0.5272
     5.1314   5.2695   5.3375   5.3976   5.5240   5.7062   5.9046   5.9529
     6.0137   6.0352   6.0914   6.1479   6.2375   6.2800   6.3175   6.3458
     6.3992   6.4193   6.5282   6.5885   6.6380   6.6830   6.7255   6.7717
     6.8157   6.8501   6.8730   6.8905   6.9369   6.9673   6.9835   7.0283
     7.0812   7.1549   7.1746   7.2160   7.2235   7.2933   7.3566   7.3833
     7.4075   7.4900   7.5061   7.5118   7.5357   7.5559   7.5882   7.6770
     7.7027   7.7431   7.7632   7.8284   7.8788   7.9208   7.9880   8.0367
     8.0937   8.1154   8.1499   8.1671   8.1776   8.2352   8.2558   8.2750
     8.3025   8.4029   8.4563   8.4773   8.4982   8.5335   8.5787   8.6089
     8.6463   8.7033   8.7104   8.7619   8.8213   8.8337   8.8726   8.8802
     8.8891   8.9069   8.9352   9.0149   9.0363   9.0507   9.0678   9.0990
     9.1058   9.1272   9.1752   9.1790   9.2020   9.2304   9.2543   9.2708
     9.2951   9.3094   9.3418   9.3595   9.3754   9.4054   9.4166   9.4557
     9.4631   9.4826   9.5037   9.5239   9.5293   9.5689   9.6015   9.6200
     9.6492   9.6609   9.6696   9.6939   9.7271   9.7415   9.7599   9.7961
     9.8128   9.8321   9.8502   9.8789   9.8968   9.9030   9.9277   9.9340
     9.9405   9.9879  10.0123  10.0448  10.0527  10.0684  10.0785  10.0920
    10.1452  10.1822  10.2009  10.2020  10.2182  10.2359  10.2560  10.2814
    10.3262  10.3522  10.3662  10.3803  10.4100  10.4289  10.4550  10.4658
    10.4763  10.5019  10.5442  10.5572  10.5702  10.5816  10.6072  10.6150
    10.6495  10.6681  10.6869  10.7328  10.7651  10.7694  10.8160  10.8208
    10.8306  10.8667  10.8924  10.9364  10.9587  10.9679  10.9826  11.0108
    11.0265  11.0899  11.1065  11.1144  11.1565  11.1860  11.2188  11.2422
    11.2532  11.3209  11.3403  11.3626  11.7563  11.7820  11.9051  11.9289
    13.1881  13.2209  13.2567  13.4827  13.5215  13.6367  13.7141  13.7703
    13.8667  13.8918  13.9604  14.1966  14.2433  14.3085  14.4034  14.4724
    14.5302  14.6238  14.6986  14.7303  14.7639  14.7827  14.8110  14.8671
    14.8903  14.9465  14.9706  14.9723  15.0034  15.0236  15.0395  15.0666
    15.0815  15.1326  15.1788  15.1856  15.2151  15.2367  15.2408  15.2643
    15.3147  15.3243  15.3721  15.4183  15.4480  15.4950  15.5314  15.5582
    15.5818  15.5839  15.6116  15.6282  15.6626  15.6789  15.7073  15.7254
    15.7536  15.7899  15.7995  15.8127  15.8256  15.8309  15.8919  15.9129
    15.9426  15.9544  15.9745  15.9811  16.0059  16.0250  16.0513  16.0668
    16.0952  16.1234  16.1464  16.1542  16.1610  16.2015  16.2121  16.2295
    16.2442  16.2554  16.2648  16.2977  16.3183  16.3320  16.3652  16.3758
    16.3837  16.4196  16.4295  16.4588  16.4627  16.4828  16.4892  16.5280

          k = 0.0000-0.5774-0.4082 ( 99518 PWs)   bands (ev):

   -43.6950 -43.5727 -43.5379 -43.5354 -43.5120 -43.5002 -43.4798 -43.4607
   -43.4572 -43.4476 -43.4416 -43.4372 -43.4342 -43.4242 -43.4215 -43.4084
   -43.4034 -43.3977 -43.3928 -43.3895 -43.3762 -43.3690 -43.3641 -43.3611
   -43.3557 -43.3490 -43.3379 -43.3235 -43.3171 -43.3016 -43.2872 -43.2562
   -20.1245 -20.0146 -20.0092 -20.0028 -20.0008 -19.9964 -19.9853 -19.9803
   -19.9715 -19.9566 -19.9456 -19.9429 -19.9392 -19.9316 -19.9255 -19.9225
   -19.9128 -19.9062 -19.9036 -19.9015 -19.8978 -19.8913 -19.8869 -19.8809
   -19.8734 -19.8696 -19.8631 -19.8593 -19.8554 -19.8476 -19.8426 -19.8376
   -19.8286 -19.8252 -19.8207 -19.8128 -19.8086 -19.8037 -19.7992 -19.7883
   -19.7819 -19.7781 -19.7718 -19.7680 -19.7595 -19.7563 -19.7480 -19.7399
   -19.7339 -19.7330 -19.7277 -19.7199 -19.7146 -19.7065 -19.7049 -19.7008
   -19.6975 -19.6906 -19.6863 -19.6785 -19.6769 -19.6729 -19.6696 -19.6671
   -19.6565 -19.6489 -19.6456 -19.6385 -19.6366 -19.6299 -19.6278 -19.6250
   -19.6157 -19.6133 -19.6063 -19.5983 -19.5965 -19.5914 -19.5862 -19.5828
   -19.5780 -19.5704 -19.5694 -19.5677 -19.5566 -19.5500 -19.5485 -19.5381
   -19.5347 -19.5326 -19.5272 -19.5203 -19.5065 -19.5024 -19.4788 -19.4711
    -3.3777  -3.2377  -2.9355  -2.9089  -2.8329  -2.7522  -2.1875  -2.1384
    -2.1240  -2.0827  -2.0256  -1.9869  -1.9530  -1.8340  -1.7768  -1.7103
    -1.7045  -1.6958  -1.6097  -1.5891  -1.5683  -1.5350  -1.4051  -1.3934
    -1.3744  -1.3404  -1.3152  -1.2922  -1.2433  -1.2177  -1.1944  -1.1757
    -1.1644  -1.1504  -1.1301  -1.0813  -1.0709  -1.0344  -1.0196  -1.0063
    -0.9953  -0.9626  -0.9520  -0.9290  -0.8928  -0.8895  -0.8764  -0.8468
    -0.8206  -0.7949  -0.7858  -0.7729  -0.7402  -0.7307  -0.7238  -0.7077
    -0.6875  -0.6588  -0.6381  -0.6272  -0.6167  -0.5941  -0.5475  -0.5428
     5.2312   5.3625   5.4073   5.5665   5.6355   5.6824   5.7044   5.7830
     5.9380   5.9594   5.9794   6.0864   6.2134   6.2690   6.3279   6.4170
     6.4681   6.4956   6.5206   6.6165   6.6304   6.6728   6.7181   6.7654
     6.7904   6.8142   6.8595   6.8845   6.8945   6.9884   7.0141   7.0346
     7.0692   7.0845   7.1230   7.1745   7.1955   7.2966   7.3392   7.3728
     7.3975   7.4490   7.4868   7.5446   7.5716   7.6167   7.6634   7.6979
     7.7073   7.7733   7.7883   7.8194   7.8723   7.8999   7.9451   7.9824
     8.0081   8.0215   8.0730   8.0929   8.1393   8.1580   8.1955   8.2123
     8.2672   8.3382   8.3504   8.3980   8.4282   8.5231   8.5446   8.6093
     8.7275   8.7801   8.7940   8.8345   8.8524   8.8883   8.8992   8.9491
     8.9871   9.0370   9.0762   9.0764   9.1193   9.1283   9.1588   9.2062
     9.2187   9.2354   9.2423   9.2470   9.2815   9.3044   9.3218   9.3451
     9.3582   9.3677   9.3914   9.4003   9.4135   9.4266   9.4506   9.4659
     9.4826   9.5078   9.5272   9.5459   9.5660   9.5849   9.5943   9.6313
     9.6371   9.6613   9.6836   9.7099   9.7520   9.7624   9.7687   9.7953
     9.7976   9.8246   9.8573   9.8627   9.8910   9.9178   9.9410   9.9494
     9.9594   9.9841  10.0046  10.0216  10.0485  10.0552  10.0871  10.0928
    10.1128  10.1486  10.1547  10.1767  10.1862  10.2395  10.2610  10.3153
    10.3308  10.3409  10.3563  10.3687  10.4036  10.4188  10.4259  10.4420
    10.4591  10.4710  10.4950  10.5153  10.5235  10.5481  10.5717  10.5954
    10.6291  10.6490  10.6733  10.6988  10.7142  10.7437  10.7511  10.7688
    10.7870  10.8259  10.8411  10.8579  10.8869  10.9046  10.9325  10.9439
    10.9610  10.9712  10.9920  11.0397  11.0570  11.1014  11.2099  11.2593
    11.2989  11.3530  11.4608  11.5483  11.6785  11.6995  11.7942  11.8016
    12.7092  13.1139  13.5894  13.6081  13.8415  13.8575  13.9310  14.0210
    14.0779  14.1568  14.1707  14.2392  14.2787  14.2891  14.3904  14.4296
    14.4631  14.4908  14.5019  14.5697  14.6323  14.6866  14.7330  14.7599
    14.8055  14.8345  14.8623  14.9174  14.9317  15.0021  15.0287  15.0617
    15.1131  15.1460  15.1711  15.2204  15.2723  15.3033  15.3227  15.3372
    15.3747  15.3903  15.4024  15.4437  15.4547  15.5260  15.5375  15.5561
    15.5936  15.6179  15.6604  15.6727  15.6969  15.7182  15.7260  15.7465
    15.7686  15.7934  15.7959  15.8203  15.8496  15.8508  15.8869  15.8904
    15.9152  15.9325  15.9382  15.9593  15.9718  15.9936  16.0178  16.0323
    16.0473  16.0950  16.1035  16.1236  16.1573  16.1789  16.1893  16.2023
    16.2174  16.2317  16.2428  16.2634  16.2794  16.3052  16.3149  16.3330
    16.3440  16.3672  16.3871  16.4004  16.4101  16.4384  16.4508  16.4826

          k = 0.5000 0.2887 0.2041 ( 99520 PWs)   bands (ev):

   -43.6950 -43.5727 -43.5379 -43.5354 -43.5119 -43.5002 -43.4798 -43.4608
   -43.4572 -43.4476 -43.4416 -43.4372 -43.4342 -43.4242 -43.4215 -43.4093
   -43.4023 -43.3974 -43.3932 -43.3896 -43.3762 -43.3696 -43.3642 -43.3607
   -43.3556 -43.3490 -43.3379 -43.3228 -43.3182 -43.3011 -43.2873 -43.2562
   -20.1246 -20.0116 -20.0101 -20.0068 -20.0009 -19.9998 -19.9866 -19.9771
   -19.9572 -19.9523 -19.9501 -19.9427 -19.9388 -19.9353 -19.9300 -19.9233
   -19.9155 -19.9073 -19.9061 -19.9008 -19.8964 -19.8924 -19.8895 -19.8796
   -19.8771 -19.8653 -19.8624 -19.8617 -19.8519 -19.8497 -19.8450 -19.8369
   -19.8283 -19.8239 -19.8187 -19.8156 -19.8077 -19.8038 -19.7954 -19.7929
   -19.7780 -19.7722 -19.7703 -19.7676 -19.7649 -19.7549 -19.7418 -19.7408
   -19.7359 -19.7326 -19.7283 -19.7262 -19.7163 -19.7072 -19.7017 -19.6959
   -19.6939 -19.6900 -19.6864 -19.6832 -19.6807 -19.6750 -19.6668 -19.6639
   -19.6635 -19.6534 -19.6476 -19.6401 -19.6368 -19.6272 -19.6255 -19.6189
   -19.6166 -19.6080 -19.6076 -19.6011 -19.5971 -19.5911 -19.5867 -19.5834
   -19.5786 -19.5739 -19.5674 -19.5632 -19.5581 -19.5495 -19.5478 -19.5397
   -19.5369 -19.5319 -19.5282 -19.5200 -19.5036 -19.5022 -19.4791 -19.4719
    -3.3951  -3.3518  -2.8290  -2.7794  -2.6798  -2.5788  -2.5108  -2.3249
    -2.1643  -2.1355  -2.0784  -2.0056  -1.9999  -1.9391  -1.7721  -1.7603
    -1.6751  -1.6612  -1.6087  -1.5735  -1.4398  -1.4109  -1.3715  -1.3457
    -1.3372  -1.3161  -1.2998  -1.2578  -1.2308  -1.2119  -1.1634  -1.1484
    -1.1360  -1.1232  -1.0964  -1.0726  -1.0545  -1.0417  -1.0373  -1.0018
    -0.9766  -0.9695  -0.9562  -0.9308  -0.9169  -0.9053  -0.8877  -0.8456
    -0.8345  -0.8295  -0.7977  -0.7950  -0.7799  -0.7698  -0.7381  -0.7049
    -0.6837  -0.6751  -0.6511  -0.6425  -0.6261  -0.5919  -0.5439  -0.5349
     5.0509   5.1522   5.5080   5.5625   5.6441   5.7351   5.8312   5.9331
     5.9408   5.9762   6.0764   6.1278   6.2195   6.3080   6.3262   6.3625
     6.4382   6.4583   6.5300   6.5981   6.6016   6.6513   6.6873   6.7441
     6.7846   6.8268   6.8446   6.8832   6.9091   6.9728   6.9894   7.0228
     7.0265   7.0669   7.1122   7.1818   7.2759   7.2921   7.3088   7.3571
     7.3622   7.4455   7.4804   7.5101   7.6050   7.6278   7.6337   7.6768
     7.7527   7.7697   7.8311   7.8627   7.9313   7.9467   7.9669   7.9986
     8.0919   8.1004   8.1550   8.1850   8.1988   8.2122   8.2749   8.3312
     8.3785   8.4136   8.4340   8.4649   8.5138   8.5725   8.5990   8.6512
     8.6840   8.6957   8.7518   8.7753   8.8204   8.8221   8.8624   8.8828
     8.8881   8.9352   8.9687   9.0011   9.0124   9.0398   9.0512   9.1026
     9.1300   9.1637   9.2006   9.2160   9.2347   9.2504   9.2605   9.2948
     9.3035   9.3180   9.3361   9.3486   9.3554   9.3693   9.4156   9.4427
     9.4451   9.4634   9.4806   9.4901   9.5166   9.5415   9.5828   9.5924
     9.6125   9.6185   9.6503   9.6769   9.6952   9.7036   9.7344   9.7527
     9.7945   9.8011   9.8137   9.8364   9.8557   9.8726   9.9066   9.9165
     9.9448   9.9833   9.9978  10.0427  10.0517  10.0893  10.0961  10.1157
    10.1381  10.1727  10.2034  10.2192  10.2381  10.2527  10.2676  10.3127
    10.3385  10.3526  10.3633  10.3962  10.4133  10.4349  10.4652  10.4716
    10.5064  10.5350  10.5616  10.5935  10.6094  10.6161  10.6413  10.6509
    10.6866  10.6974  10.6984  10.7101  10.7422  10.7788  10.7992  10.8245
    10.8307  10.8738  10.9262  10.9305  10.9445  10.9528  10.9690  11.0036
    11.0249  11.0300  11.0483  11.0829  11.1338  11.1662  11.1975  11.2629
    11.2741  11.2849  11.3753  11.4356  11.8093  11.8260  11.8524  11.8848
    13.1181  13.2488  13.3053  13.3963  13.5062  13.5581  13.6712  13.8046
    13.8414  14.0282  14.1706  14.2097  14.2519  14.3068  14.3899  14.4848
    14.5169  14.5854  14.6579  14.6823  14.7441  14.7808  14.7963  14.8551
    14.8706  14.8995  14.9243  14.9511  14.9617  15.0068  15.0114  15.0579
    15.0868  15.1057  15.1120  15.1788  15.2212  15.2485  15.2786  15.3394
    15.3883  15.4099  15.4159  15.4335  15.4740  15.5002  15.5147  15.5258
    15.5683  15.5861  15.6102  15.6267  15.6441  15.6496  15.6894  15.7049
    15.7309  15.7475  15.7863  15.8031  15.8328  15.8555  15.8646  15.8949
    15.9136  15.9426  15.9575  15.9653  15.9852  16.0054  16.0616  16.0920
    16.1056  16.1213  16.1339  16.1549  16.1681  16.1896  16.1983  16.2054
    16.2306  16.2603  16.2883  16.3002  16.3216  16.3275  16.3592  16.3764
    16.3815  16.4001  16.4156  16.4449  16.4789  16.4951  16.5035  16.5318

          k =-0.5000 0.2887 0.2041 ( 99520 PWs)   bands (ev):

   -43.6950 -43.5727 -43.5379 -43.5354 -43.5119 -43.5002 -43.4798 -43.4608
   -43.4572 -43.4477 -43.4416 -43.4373 -43.4341 -43.4242 -43.4215 -43.4090
   -43.4020 -43.3977 -43.3919 -43.3916 -43.3762 -43.3690 -43.3644 -43.3603
   -43.3558 -43.3491 -43.3379 -43.3237 -43.3170 -43.3015 -43.2872 -43.2562
   -20.1245 -20.0140 -20.0091 -20.0049 -20.0021 -19.9994 -19.9898 -19.9756
   -19.9649 -19.9581 -19.9457 -19.9408 -19.9346 -19.9319 -19.9279 -19.9271
   -19.9125 -19.9098 -19.9078 -19.9053 -19.8961 -19.8938 -19.8865 -19.8804
   -19.8699 -19.8648 -19.8622 -19.8593 -19.8542 -19.8466 -19.8417 -19.8395
   -19.8336 -19.8259 -19.8192 -19.8120 -19.8057 -19.8000 -19.7948 -19.7925
   -19.7822 -19.7770 -19.7736 -19.7616 -19.7578 -19.7538 -19.7479 -19.7420
   -19.7317 -19.7273 -19.7219 -19.7185 -19.7127 -19.7102 -19.7071 -19.7044
   -19.6975 -19.6897 -19.6866 -19.6818 -19.6814 -19.6762 -19.6698 -19.6673
   -19.6579 -19.6553 -19.6510 -19.6379 -19.6329 -19.6274 -19.6249 -19.6215
   -19.6158 -19.6103 -19.6066 -19.6018 -19.5978 -19.5930 -19.5880 -19.5843
   -19.5811 -19.5726 -19.5682 -19.5629 -19.5589 -19.5521 -19.5487 -19.5430
   -19.5388 -19.5304 -19.5287 -19.5178 -19.5076 -19.5021 -19.4771 -19.4616
    -3.4705  -3.2256  -2.8544  -2.7516  -2.6968  -2.5905  -2.5474  -2.4846
    -2.1429  -2.0899  -2.0705  -1.9992  -1.9460  -1.8266  -1.7613  -1.7273
    -1.6490  -1.6262  -1.6254  -1.5612  -1.4674  -1.4228  -1.3963  -1.3750
    -1.3663  -1.3288  -1.2999  -1.2877  -1.2370  -1.2009  -1.1991  -1.1633
    -1.1553  -1.1419  -1.1155  -1.0941  -1.0586  -1.0299  -1.0207  -1.0006
    -0.9830  -0.9655  -0.9525  -0.9273  -0.9145  -0.8930  -0.8697  -0.8608
    -0.8313  -0.8190  -0.8076  -0.7829  -0.7798  -0.7415  -0.7239  -0.7001
    -0.6754  -0.6731  -0.6386  -0.6249  -0.6214  -0.5989  -0.5740  -0.5397
     5.0823   5.2753   5.3201   5.4724   5.6106   5.6431   5.8236   5.9391
     6.0178   6.0731   6.1100   6.1589   6.2305   6.2932   6.3050   6.3818
     6.4679   6.5048   6.5678   6.5864   6.6310   6.6570   6.6885   6.7063
     6.7614   6.7782   6.8281   6.8743   6.9396   6.9550   6.9990   7.0396
     7.0703   7.1444   7.1758   7.2126   7.2455   7.2814   7.2883   7.3073
     7.4102   7.4283   7.4817   7.5125   7.5691   7.6252   7.6647   7.7081
     7.7534   7.7872   7.8006   7.8594   7.9005   7.9161   7.9954   8.0097
     8.0648   8.0923   8.1225   8.1654   8.1970   8.2233   8.2788   8.3046
     8.3235   8.3823   8.4278   8.4614   8.5049   8.5219   8.5957   8.6465
     8.6594   8.6939   8.7354   8.7709   8.8217   8.8239   8.8440   8.8907
     8.8977   8.9599   8.9808   9.0074   9.0081   9.0226   9.0416   9.0984
     9.1115   9.1333   9.1695   9.1945   9.2132   9.2350   9.2744   9.2905
     9.3003   9.3243   9.3511   9.3557   9.3669   9.4036   9.4126   9.4357
     9.4711   9.4782   9.5000   9.5208   9.5382   9.5659   9.5877   9.5969
     9.6454   9.6614   9.6801   9.6927   9.7039   9.7259   9.7427   9.7540
     9.7922   9.8000   9.8152   9.8333   9.8858   9.8963   9.9118   9.9289
     9.9546   9.9790   9.9940  10.0124  10.0449  10.0780  10.1028  10.1040
    10.1380  10.1540  10.1685  10.2072  10.2322  10.2452  10.2698  10.2908
    10.3053  10.3328  10.3735  10.3954  10.4204  10.4330  10.4636  10.4867
    10.4962  10.5270  10.5552  10.5645  10.5794  10.5843  10.6258  10.6621
    10.6663  10.7012  10.7040  10.7378  10.7606  10.7991  10.8151  10.8221
    10.8389  10.8800  10.8883  10.9253  10.9390  10.9636  10.9918  11.0002
    11.0240  11.0479  11.0710  11.1192  11.1516  11.1822  11.1925  11.2264
    11.2579  11.3262  11.3751  11.4286  11.7231  11.7760  11.9085  11.9483
    13.0840  13.1759  13.1864  13.4885  13.5634  13.6576  13.7662  13.7859
    13.9033  13.9629  14.0406  14.1100  14.3512  14.3884  14.4438  14.5321
    14.5841  14.6555  14.6670  14.7038  14.7362  14.7499  14.7925  14.8361
    14.8508  14.8682  14.8733  14.9483  14.9815  14.9877  15.0276  15.0468
    15.0703  15.1305  15.1760  15.1860  15.2338  15.2519  15.2712  15.3233
    15.3499  15.3744  15.4060  15.4385  15.4411  15.4630  15.4860  15.5472
    15.5698  15.5913  15.6046  15.6055  15.6327  15.6503  15.6722  15.6987
    15.7081  15.7270  15.7509  15.7989  15.8193  15.8402  15.8952  15.8974
    15.9159  15.9363  15.9598  15.9822  15.9840  16.0070  16.0282  16.0942
    16.1111  16.1320  16.1384  16.1623  16.1893  16.2229  16.2326  16.2361
    16.2465  16.2604  16.2704  16.3075  16.3254  16.3438  16.3565  16.3783
    16.4135  16.4240  16.4291  16.4528  16.4640  16.4895  16.5102  16.5224

          k = 0.5000 0.2887-0.4082 ( 99518 PWs)   bands (ev):

   -43.6950 -43.5727 -43.5379 -43.5354 -43.5119 -43.5002 -43.4798 -43.4614
   -43.4572 -43.4459 -43.4425 -43.4371 -43.4348 -43.4240 -43.4216 -43.4093
   -43.4026 -43.3985 -43.3925 -43.3883 -43.3770 -43.3690 -43.3642 -43.3608
   -43.3559 -43.3490 -43.3378 -43.3237 -43.3170 -43.3015 -43.2872 -43.2562
   -20.1244 -20.0116 -20.0067 -20.0018 -20.0000 -19.9912 -19.9787 -19.9724
   -19.9609 -19.9537 -19.9475 -19.9447 -19.9384 -19.9316 -19.9284 -19.9225
   -19.9176 -19.9108 -19.9050 -19.9015 -19.9000 -19.8946 -19.8911 -19.8888
   -19.8827 -19.8730 -19.8677 -19.8606 -19.8571 -19.8536 -19.8447 -19.8430
   -19.8338 -19.8295 -19.8203 -19.8198 -19.8159 -19.8078 -19.7984 -19.7953
   -19.7829 -19.7801 -19.7706 -19.7592 -19.7534 -19.7530 -19.7453 -19.7370
   -19.7340 -19.7269 -19.7246 -19.7171 -19.7105 -19.7079 -19.7039 -19.6959
   -19.6898 -19.6866 -19.6826 -19.6800 -19.6771 -19.6686 -19.6654 -19.6586
   -19.6524 -19.6515 -19.6458 -19.6356 -19.6328 -19.6268 -19.6212 -19.6167
   -19.6142 -19.6059 -19.6049 -19.6008 -19.5957 -19.5917 -19.5901 -19.5820
   -19.5808 -19.5780 -19.5756 -19.5696 -19.5651 -19.5536 -19.5522 -19.5418
   -19.5391 -19.5311 -19.5282 -19.5185 -19.5084 -19.5035 -19.4772 -19.4730
    -3.3828  -3.2159  -2.9802  -2.9329  -2.8189  -2.7029  -2.2187  -2.1051
    -2.0763  -2.0551  -2.0164  -1.9837  -1.9607  -1.8793  -1.7996  -1.7638
    -1.7165  -1.6973  -1.6459  -1.6160  -1.6009  -1.5429  -1.4176  -1.4030
    -1.3437  -1.3138  -1.2784  -1.2438  -1.2186  -1.2060  -1.1922  -1.1737
    -1.1550  -1.1202  -1.1049  -1.0837  -1.0742  -1.0391  -1.0311  -1.0069
    -0.9717  -0.9589  -0.9488  -0.9228  -0.9061  -0.9029  -0.8718  -0.8618
    -0.8461  -0.8084  -0.7822  -0.7657  -0.7579  -0.7379  -0.7202  -0.6907
    -0.6731  -0.6522  -0.6491  -0.6299  -0.6136  -0.5892  -0.5869  -0.5458
     5.2086   5.3813   5.5009   5.5351   5.5892   5.6082   5.7259   5.8506
     5.9532   6.0178   6.0480   6.1339   6.1821   6.2876   6.3187   6.3952
     6.4048   6.4403   6.4897   6.5413   6.5908   6.6116   6.6792   6.7477
     6.7931   6.8341   6.8879   6.9016   6.9798   6.9901   7.0149   7.0745
     7.0799   7.1132   7.1547   7.2026   7.2334   7.2953   7.3319   7.3559
     7.3948   7.4265   7.4685   7.4993   7.5352   7.5607   7.5759   7.6664
     7.6859   7.7782   7.7963   7.8381   7.8617   7.8944   7.9284   7.9395
     8.0085   8.0482   8.0832   8.1132   8.1409   8.1577   8.1884   8.2374
     8.2507   8.2867   8.3624   8.4398   8.5176   8.5563   8.5751   8.6808
     8.7232   8.7857   8.8444   8.8794   8.9267   8.9490   8.9847   8.9966
     9.0090   9.0344   9.0439   9.0702   9.0856   9.1114   9.1310   9.1746
     9.1980   9.2027   9.2369   9.2490   9.2817   9.2818   9.3138   9.3437
     9.3625   9.3735   9.3824   9.4089   9.4111   9.4390   9.4543   9.4726
     9.4894   9.4951   9.5170   9.5269   9.5540   9.5700   9.5942   9.5993
     9.6391   9.6501   9.6566   9.6986   9.7102   9.7367   9.7611   9.7635
     9.7772   9.7994   9.8299   9.8368   9.8740   9.9106   9.9198   9.9381
     9.9680   9.9829  10.0403  10.0551  10.0659  10.0814  10.1029  10.1137
    10.1543  10.1566  10.1778  10.1931  10.1960  10.2300  10.2578  10.2717
    10.2847  10.3321  10.3541  10.3639  10.3887  10.3970  10.4195  10.4450
    10.4546  10.5018  10.5098  10.5269  10.5445  10.5621  10.5999  10.6024
    10.6253  10.6482  10.6947  10.6957  10.7086  10.7302  10.7459  10.7594
    10.7640  10.8032  10.8527  10.8844  10.9041  10.9121  10.9326  10.9521
    10.9690  10.9943  11.0173  11.0250  11.0970  11.1182  11.1727  11.2276
    11.2504  11.3972  11.4329  11.5071  11.6921  11.7260  11.7556  11.8113
    12.8705  13.0327  13.5842  13.6327  13.8422  13.9115  13.9705  14.0073
    14.0383  14.0692  14.1205  14.1543  14.2258  14.2926  14.3248  14.3978
    14.4325  14.5045  14.5527  14.5865  14.6275  14.6401  14.7695  14.8120
    14.8332  14.8707  14.8995  14.9012  14.9573  15.0006  15.0458  15.0880
    15.1274  15.1394  15.2140  15.2461  15.2588  15.3042  15.3110  15.3427
    15.3495  15.3912  15.4323  15.4440  15.4747  15.4927  15.5358  15.5710
    15.6024  15.6334  15.6601  15.6764  15.6905  15.7066  15.7367  15.7459
    15.7722  15.7961  15.8144  15.8219  15.8492  15.8787  15.8859  15.9019
    15.9310  15.9503  15.9623  15.9711  15.9857  15.9999  16.0146  16.0546
    16.0551  16.0927  16.0974  16.1177  16.1289  16.1469  16.1797  16.1939
    16.2214  16.2272  16.2491  16.2627  16.2923  16.2945  16.3084  16.3402
    16.3546  16.3661  16.3843  16.3972  16.4061  16.4343  16.4425  16.4602

          k =-0.5000 0.2887-0.4082 ( 99518 PWs)   bands (ev):

   -43.6950 -43.5727 -43.5379 -43.5354 -43.5119 -43.5002 -43.4798 -43.4614
   -43.4572 -43.4460 -43.4426 -43.4371 -43.4345 -43.4239 -43.4215 -43.4095
   -43.4018 -43.3988 -43.3919 -43.3894 -43.3769 -43.3696 -43.3645 -43.3600
   -43.3557 -43.3491 -43.3380 -43.3228 -43.3182 -43.3011 -43.2873 -43.2562
   -20.1246 -20.0124 -20.0075 -20.0067 -20.0015 -19.9928 -19.9879 -19.9743
   -19.9658 -19.9588 -19.9550 -19.9430 -19.9357 -19.9298 -19.9245 -19.9218
   -19.9190 -19.9080 -19.9017 -19.8994 -19.8978 -19.8948 -19.8909 -19.8849
   -19.8751 -19.8700 -19.8653 -19.8576 -19.8543 -19.8487 -19.8363 -19.8334
   -19.8303 -19.8247 -19.8224 -19.8169 -19.8113 -19.8027 -19.7959 -19.7866
   -19.7841 -19.7767 -19.7685 -19.7652 -19.7625 -19.7580 -19.7431 -19.7401
   -19.7368 -19.7347 -19.7298 -19.7216 -19.7169 -19.7061 -19.7028 -19.7007
   -19.6918 -19.6870 -19.6846 -19.6837 -19.6760 -19.6694 -19.6671 -19.6658
   -19.6568 -19.6539 -19.6526 -19.6402 -19.6313 -19.6282 -19.6226 -19.6153
   -19.6121 -19.6069 -19.6027 -19.6004 -19.5949 -19.5913 -19.5870 -19.5828
   -19.5805 -19.5749 -19.5736 -19.5695 -19.5623 -19.5554 -19.5505 -19.5483
   -19.5383 -19.5332 -19.5276 -19.5183 -19.5053 -19.5030 -19.4778 -19.4613
    -3.3399  -3.2972  -2.9367  -2.8966  -2.8395  -2.7111  -2.1625  -2.1373
    -2.0975  -2.0855  -2.0438  -1.9857  -1.9560  -1.9093  -1.7645  -1.7447
    -1.7278  -1.6939  -1.6511  -1.6120  -1.5805  -1.5579  -1.4273  -1.3978
    -1.3110  -1.2882  -1.2758  -1.2543  -1.2300  -1.2177  -1.2015  -1.1503
    -1.1346  -1.1241  -1.1153  -1.0788  -1.0734  -1.0459  -1.0242  -1.0134
    -0.9903  -0.9622  -0.9558  -0.9205  -0.9030  -0.8887  -0.8620  -0.8378
    -0.8200  -0.8099  -0.7932  -0.7832  -0.7551  -0.7418  -0.7414  -0.7079
    -0.6884  -0.6691  -0.6575  -0.6303  -0.6105  -0.5823  -0.5754  -0.5310
     5.2048   5.3054   5.4385   5.5632   5.6489   5.7282   5.7437   5.8362
     5.9175   5.9343   6.0120   6.1183   6.1773   6.3056   6.3635   6.3854
     6.4412   6.5178   6.5282   6.6006   6.6296   6.6562   6.6881   6.7477
     6.7780   6.7950   6.8350   6.8567   6.9020   6.9480   7.0216   7.0337
     7.0579   7.0824   7.1685   7.1817   7.2188   7.2956   7.3188   7.4011
     7.4212   7.4426   7.4686   7.5024   7.5454   7.5977   7.6397   7.6801
     7.7375   7.7743   7.7953   7.8104   7.8616   7.8861   7.9205   7.9708
     7.9958   8.0296   8.0563   8.0903   8.1176   8.1703   8.2050   8.2371
     8.2869   8.2974   8.3664   8.4585   8.5117   8.5256   8.6266   8.6508
     8.7007   8.7667   8.8313   8.8516   8.8648   8.8929   8.9338   8.9780
     9.0166   9.0346   9.0761   9.0849   9.1119   9.1309   9.1433   9.1767
     9.1792   9.1990   9.2353   9.2444   9.2496   9.2888   9.3091   9.3356
     9.3510   9.3657   9.3709   9.3943   9.4229   9.4296   9.4432   9.4634
     9.4894   9.5047   9.5192   9.5476   9.5592   9.5785   9.6230   9.6322
     9.6382   9.6451   9.6829   9.6980   9.7112   9.7254   9.7538   9.7854
     9.8011   9.8167   9.8422   9.8747   9.8869   9.9122   9.9401   9.9795
     9.9831  10.0187  10.0465  10.0540  10.0696  10.0832  10.0862  10.1100
    10.1470  10.1689  10.1856  10.1960  10.2173  10.2447  10.2612  10.2799
    10.2885  10.2982  10.3079  10.3422  10.3676  10.3723  10.3998  10.4257
    10.4394  10.4600  10.4833  10.4893  10.5159  10.5254  10.5868  10.6117
    10.6308  10.6638  10.6688  10.7137  10.7257  10.7478  10.7661  10.7817
    10.8037  10.8384  10.8516  10.8618  10.8803  10.9169  10.9378  10.9532
    10.9607  10.9695  11.0088  11.0625  11.0935  11.1236  11.1775  11.2396
    11.2538  11.3836  11.4620  11.5028  11.6914  11.7363  11.7741  11.8114
    12.7954  13.0980  13.5769  13.6004  13.8621  13.8984  13.9334  14.0485
    14.0613  14.1182  14.1645  14.1957  14.2540  14.3114  14.3401  14.3967
    14.4468  14.4912  14.5504  14.6269  14.6438  14.6949  14.7225  14.7569
    14.7982  14.8360  14.8842  14.9168  14.9671  14.9818  15.0445  15.0568
    15.0974  15.1423  15.1950  15.2067  15.2237  15.2471  15.2887  15.3187
    15.3313  15.3721  15.4041  15.4375  15.4878  15.4954  15.5348  15.5896
    15.6102  15.6542  15.6733  15.6962  15.7051  15.7162  15.7335  15.7552
    15.7605  15.7789  15.8021  15.8382  15.8623  15.8881  15.8910  15.9082
    15.9140  15.9281  15.9397  15.9581  15.9895  16.0006  16.0039  16.0299
    16.0364  16.0645  16.0881  16.1014  16.1280  16.1686  16.1806  16.1954
    16.2089  16.2280  16.2382  16.2493  16.2635  16.2821  16.3106  16.3394
    16.3521  16.3702  16.3750  16.4029  16.4201  16.4327  16.4376  16.4965

     the Fermi energy is    14.4759 ev

!    total energy              =   -8960.92384680 Ry
     total all-electron energy =    -77206.149017 Ry
     estimated scf accuracy    <       0.00000066 Ry
     smearing contrib. (-TS)   =      -0.00657288 Ry
     internal energy E=F+TS    =   -8960.91727392 Ry

     The total energy is F=E-TS. E is the sum of the following terms:
     one-electron contribution =   -1837.68545907 Ry
     hartree contribution      =    1416.32249987 Ry
     xc contribution           =   -1052.97145248 Ry
     ewald contribution        =   -3776.99859309 Ry
     one-center paw contrib.   =   -3709.58426915 Ry

     convergence has been achieved in  18 iterations

     Forces acting on atoms (cartesian axes, Ry/au):

     atom    1 type  3   force =     0.04041441    0.02050739   -0.01168890
     atom    2 type  2   force =    -0.07327006    0.00530684    0.00121714
     atom    3 type  3   force =     0.05342646   -0.00336576   -0.01314166
     atom    4 type  2   force =    -0.01043312   -0.03888231    0.06664794
     atom    5 type  1   force =    -0.00120956    0.00651975   -0.00529831
     atom    6 type  2   force =     0.04521265   -0.02582738   -0.05957955
     atom    7 type  3   force =    -0.03000252    0.04580831   -0.00626284
     atom    8 type  2   force =    -0.03696543    0.01463688    0.05375601
     atom    9 type  3   force =     0.03546299   -0.02801073   -0.00611224
     atom   10 type  2   force =     0.00129876    0.04745217    0.02945269
     atom   11 type  3   force =    -0.01583347   -0.00941475   -0.05085998
     atom   12 type  2   force =     0.00052657    0.04810976    0.02400936
     atom   13 type  1   force =    -0.00068403   -0.00585892    0.00338210
     atom   14 type  2   force =    -0.04034413    0.01776810   -0.02800486
     atom   15 type  3   force =     0.02670844   -0.02906938    0.03412004
     atom   16 type  2   force =    -0.03710743    0.03298666   -0.02788084
     atom   17 type  3   force =    -0.00077150   -0.05540481    0.04737639
     atom   18 type  2   force =    -0.04350747    0.02826456   -0.03127946
     atom   19 type  3   force =    -0.00096711   -0.02169012   -0.00278348
     atom   20 type  2   force =    -0.03911283    0.02823992    0.05669174
     atom   21 type  3   force =     0.01241473    0.00175406   -0.05929577
     atom   22 type  2   force =    -0.03456404    0.02133614    0.06518640
     atom   23 type  1   force =     0.00607873    0.00196507   -0.00168769
     atom   24 type  2   force =    -0.00524135    0.04334076   -0.06344256
     atom   25 type  1   force =     0.00157666   -0.00098613   -0.00472565
     atom   26 type  2   force =    -0.04557392    0.01593377   -0.03089052
     atom   27 type  3   force =     0.03101797   -0.00851474    0.01632635
     atom   28 type  2   force =    -0.07354892    0.03435529    0.02914049
     atom   29 type  3   force =     0.03915317   -0.03143465   -0.06913829
     atom   30 type  2   force =     0.00085156    0.00302568    0.00753723
     atom   31 type  1   force =    -0.00294569   -0.00146095    0.00326304
     atom   32 type  2   force =    -0.00289788   -0.04376137    0.06021695
     atom   33 type  3   force =    -0.06142656    0.05614393    0.01760712
     atom   34 type  2   force =     0.00315079    0.00155114   -0.00239850
     atom   35 type  3   force =    -0.03792819    0.00213497   -0.00487118
     atom   36 type  2   force =    -0.00283801   -0.00176085    0.08211614
     atom   37 type  1   force =    -0.00152267    0.00863878   -0.00296631
     atom   38 type  2   force =     0.00469216    0.00007513   -0.07921363
     atom   39 type  3   force =    -0.01074668    0.06234644    0.02320168
     atom   40 type  2   force =    -0.00106732   -0.00956960   -0.00512614
     atom   41 type  3   force =    -0.02046765    0.02453863    0.03381465
     atom   42 type  2   force =     0.04969033    0.01724621   -0.03347732
     atom   43 type  3   force =    -0.01477097    0.03426752   -0.03959805
     atom   44 type  2   force =     0.00275049   -0.04518204    0.06064105
     atom   45 type  1   force =    -0.00640997    0.00060399    0.00009434
     atom   46 type  2   force =     0.04177476    0.02187499   -0.02937880
     atom   47 type  3   force =    -0.03689619    0.00283756    0.03497174
     atom   48 type  2   force =    -0.04294853    0.02390326   -0.03255957
     atom   49 type  1   force =     0.00084128   -0.00160443    0.01063275
     atom   50 type  2   force =    -0.00521996    0.00160826   -0.08033695
     atom   51 type  3   force =    -0.00731821   -0.00128738    0.03309662
     atom   52 type  2   force =     0.03698320   -0.01646970    0.02848055
     atom   53 type  1   force =    -0.00808949   -0.00460438   -0.00352824
     atom   54 type  2   force =    -0.04237536   -0.02058041    0.03404514
     atom   55 type  3   force =     0.01675908   -0.02326667   -0.00156405
     atom   56 type  2   force =     0.03486140    0.06002251   -0.00403642
     atom   57 type  1   force =    -0.00382481   -0.00097747    0.00150251
     atom   58 type  2   force =     0.00604123   -0.04981916   -0.02817066
     atom   59 type  3   force =    -0.06800235    0.03547508    0.03310581
     atom   60 type  2   force =    -0.00010994    0.04148798    0.03342213
     atom   61 type  3   force =    -0.00659296    0.00618792   -0.01248122
     atom   62 type  2   force =     0.00341491   -0.00801333    0.00276339
     atom   63 type  1   force =    -0.00357198    0.00036937    0.00542983
     atom   64 type  2   force =     0.00278809   -0.07717599    0.02142864
     atom   65 type  1   force =     0.00265046    0.00292650    0.00161415
     atom   66 type  2   force =     0.03755610   -0.06244055    0.01303813
     atom   67 type  1   force =    -0.00559234   -0.00062689   -0.00202588
     atom   68 type  2   force =     0.00343550   -0.03969456    0.05390353
     atom   69 type  1   force =     0.00443071    0.00342009   -0.00575657
     atom   70 type  2   force =    -0.00718273   -0.04297147   -0.02928080
     atom   71 type  1   force =     0.00749787    0.00203248   -0.00172260
     atom   72 type  2   force =     0.07321614   -0.04053822   -0.03481885
     atom   73 type  3   force =    -0.02187406    0.02136231   -0.00783866
     atom   74 type  2   force =    -0.00597669    0.04042072   -0.05849847
     atom   75 type  3   force =     0.00350306    0.03004078   -0.00826787
     atom   76 type  2   force =     0.00068931    0.03656690    0.03059406
     atom   77 type  3   force =     0.00466391   -0.00397996   -0.00401706
     atom   78 type  2   force =     0.04295212    0.02395614   -0.02676309
     atom   79 type  1   force =    -0.00152592   -0.00230101    0.00105183
     atom   80 type  2   force =     0.00260546   -0.00366530    0.00326529
     atom   81 type  1   force =    -0.00033384   -0.00437300    0.00460299
     atom   82 type  2   force =     0.04052727   -0.02400718   -0.06191543
     atom   83 type  1   force =     0.00255911    0.00173763    0.00474418
     atom   84 type  2   force =     0.03673101   -0.05809941    0.00091590
     atom   85 type  1   force =     0.00021145   -0.00535541   -0.00076132
     atom   86 type  2   force =     0.00244932    0.01223633   -0.00292867
     atom   87 type  3   force =    -0.03272837   -0.03655764   -0.01129593
     atom   88 type  2   force =    -0.00117230    0.03718373    0.02093366
     atom   89 type  1   force =    -0.00362855    0.00414639   -0.00288503
     atom   90 type  2   force =     0.06953606   -0.04284699   -0.02498607
     atom   91 type  1   force =    -0.00226115   -0.00097269   -0.00678089
     atom   92 type  2   force =     0.04406162    0.01966400   -0.03061134
     atom   93 type  3   force =    -0.03817589   -0.01692334    0.01143671
     atom   94 type  2   force =    -0.00178979   -0.00631923    0.00150498
     atom   95 type  1   force =     0.00709666    0.00226582    0.00672329
     atom   96 type  2   force =     0.03354079   -0.06085114   -0.00488285
     atom   97 type  1   force =     0.00562875    0.00393437    0.00273294
     atom   98 type  2   force =     0.03607817   -0.06011916    0.00262367
     atom   99 type  1   force =    -0.00140124    0.00472027    0.00359602
     atom  100 type  2   force =     0.00510938   -0.07803680    0.03150621
     atom  101 type  1   force =    -0.00170450    0.00188084   -0.00917600
     atom  102 type  2   force =    -0.04335812   -0.02238144    0.03606967
     atom  103 type  3   force =     0.03364624    0.06242391   -0.03473689
     atom  104 type  2   force =    -0.03620885   -0.02830394    0.02100991
     atom  105 type  1   force =    -0.00473737   -0.00459949   -0.00419967
     atom  106 type  2   force =    -0.04388780    0.02479522   -0.02841377
     atom  107 type  3   force =     0.02226400    0.00532035   -0.01934909
     atom  108 type  2   force =    -0.00357986    0.07398525   -0.04159911
     atom  109 type  3   force =     0.01507530   -0.02570046    0.02526075
     atom  110 type  2   force =    -0.04374845    0.02629341   -0.02293454
     atom  111 type  3   force =     0.00041320   -0.02256970    0.00208822
     atom  112 type  2   force =     0.07966467    0.04940366    0.03135962
     atom  113 type  3   force =     0.03620069   -0.06028203    0.03677909
     atom  114 type  2   force =     0.00157439    0.03260654    0.02058318
     atom  115 type  1   force =    -0.00211021   -0.00214624    0.00434871
     atom  116 type  2   force =    -0.03531945   -0.05426340    0.00007710
     atom  117 type  1   force =     0.00850284   -0.00644757   -0.00265610
     atom  118 type  2   force =     0.07078840    0.00251293   -0.00428962
     atom  119 type  1   force =    -0.00272021    0.00048734    0.00048270
     atom  120 type  2   force =    -0.02966336    0.02269364   -0.02561819
     atom  121 type  1   force =     0.00567279    0.00283055   -0.00108146
     atom  122 type  2   force =    -0.03502912    0.01989621   -0.02191343
     atom  123 type  3   force =     0.05182991   -0.03336816    0.01647388
     atom  124 type  2   force =     0.02980074    0.05836580   -0.00229199
     atom  125 type  1   force =     0.00103604   -0.00201943   -0.00176562
     atom  126 type  2   force =    -0.00209246    0.00106934    0.00237502
     atom  127 type  1   force =    -0.00115932   -0.00450403    0.00136205
     atom  128 type  2   force =    -0.03502005   -0.02854503    0.03010712

     Total force =     0.588265     Total SCF correction =     0.003075


     Computing stress (Cartesian axis) and pressure

          total   stress  (Ry/bohr**3)                   (kbar)     P=      -90.11
  -0.00063496   0.00000651  -0.00001319          -93.41        0.96       -1.94
   0.00000651  -0.00059353  -0.00000037            0.96      -87.31       -0.05
  -0.00001319  -0.00000037  -0.00060917           -1.94       -0.05      -89.61


     BFGS Geometry Optimization
     Energy error            =      0.0E+00 Ry
     Gradient error          =      8.2E-02 Ry/Bohr
     Cell gradient error     =      9.3E+01 kbar

     number of scf cycles    =   1
     number of bfgs steps    =   0

     enthalpy           new  =   -8960.9238468000 Ry

     new trust radius        =       0.2880964761 bohr
     new conv_thr            =       0.0000010000 Ry

     new unit-cell volume =   7857.91980 a.u.^3 (  1164.42358 Ang^3 )
     density =      4.69405 g/cm^3

CELL_PARAMETERS (angstrom)
  11.802162477   0.001952043  -0.003955770
   5.902771758  10.232706008  -0.002073740
   5.898414872   3.411462311   9.640728717

ATOMIC_POSITIONS (angstrom)
Ti            0.0210507052        0.0106945590       -0.0060984516
N            11.7638833722        1.7099893487        1.2020176115
Ti            1.5024290007        0.8511155902        2.4033245108
N            13.2711959037        2.5398231039        3.6462862235
Al            2.9485790096        1.7091299853        4.8176034924
N            14.7748018190        3.3994999540        5.9906791748
Ti            4.4081915687        2.5824752051        7.2272878702
N            16.2065927758        4.2734529377        8.4599367287
Ti            1.4941599089        2.5435768858       -0.0037096906
N            13.2784087460        4.2901435584        1.2162000162
Ti            2.9420590154        3.4061328161        2.3831624877
N            14.7526113333        5.1433519154        3.6235457042
Al            4.4245430527        4.2608531789        4.8216085446
N            16.2059369907        5.9803963536        6.0066296060
Ti            5.9134047759        5.1016207687        7.2478041600
N            17.6822275984        6.8411960285        8.4168757744
Ti            2.9509710571        5.0874687832        0.0236522362
N            14.7307765750        6.8383135159        1.1840408603
Ti            4.4254845648        5.9579109055        2.4076950639
N            16.2076535650        7.6911661967        3.6400656712
Ti            5.9070691239        6.8229999515        4.7884252046
N            17.6846241109        8.5404330110        6.0546738140
Al           19.1805256390        7.6779267545        7.2246733410
N            19.1745227589        9.4047733055        8.3978198652
Al            4.4279006489        7.6740155705       -0.0040181959
N            16.2053922253        9.3900614827        1.1837255316
Ti            5.9178323995        8.5229587267        2.4171294596
N            17.6654183116       10.2525279651        3.6251957584
Ti            7.3966856862        9.3638766941        4.7827731459
N            19.1787691674       11.0890671398        6.0241072518
Al           20.6515177055       10.2343163825        7.2267364116
N            20.6514070363       11.9175408675        8.4617426767
Ti            2.9185528385        0.0297518820        0.0081968996
N             2.9520600507        1.7065739772        1.2030869409
Ti            4.4053932378        0.8544633601        2.4066613852
N             4.4235298998        2.5577120015        3.6573123033
Al            5.8989563456        1.7107226649        4.8178298416
N             5.9020834788        3.4115361576        5.9834212672
Ti            7.3687564668        2.5915864776        7.2416499848
N             7.3736740265        4.2593728356        8.4322128454
Ti            4.4155706884        2.5714551921        0.0161175093
N             4.4519964930        4.2729368760        1.1863645642
Ti            5.8931547562        3.4293935320        2.3880419452
N             5.9021332111        5.0932525314        3.6456020450
Al            7.3721028635        4.2647099901        4.8189072593
N             7.3970813647        5.9810804261        6.0088660973
Ti            8.8308241605        5.1187371892        7.2472699973
N             8.8275638634        6.8349961114        8.4174054950
Al            5.9023626236        5.1160046073        0.0035149708
N             5.8991002425        6.8229564166        1.1614363806
Ti            7.3727131699        5.9690346583        2.4254049038
N             7.3956618473        7.6664006034        3.6283180678
Al            8.8469213343        6.8201711136        4.8165013514
N             8.8289361210        8.5171163028        6.0414139309
Ti           10.3344636675        7.6633096954        7.2277028608
N            10.3437765624        9.4120090539        8.4317372401
Al            7.3756272199        7.6745076020       -0.0017605908
N             7.3806442190        9.3543232273        1.1881010409
Ti            8.8168063642        8.5463711303        2.4249016730
N             8.8520416582       10.2547886866        3.6303809725
Ti           10.3233961247        9.3839740864        4.8113170390
N            10.3284821273       11.0818484387        6.0245859477
Al           11.7995694692       10.2338064780        7.2308324974
N            11.8027501946       11.8986576305        8.4444953799
Al            5.9024615084        0.0025018995       -0.0011372016
N             5.9205099599        1.6737043971        1.2101366175
Al            7.3727728910        0.8535143157        2.4071495498
N             7.3773392751        2.5384248925        3.6416203442
Al            8.8525973882        1.7084905665        4.8153858314
N             8.8464275030        3.3895816246        6.0084555202
Al           10.3287975849        2.5606329940        7.2276696581
N            10.3629022849        4.2437226678        8.4157376746
Ti            7.3653858762        2.5702873883       -0.0065774742
N             7.3735533683        4.2855016693        1.1723462489
Ti            8.8532062417        3.4276794580        2.4033765637
N             8.8516127015        5.1363582945        3.6289550275
Ti           10.3284108270        4.2628092487        4.8157738790
N            10.3482348501        5.9826534811        6.0092400301
Al           11.7997902867        5.1165495448        7.2285986238
N            11.8018193265        6.8211156872        8.4350777287
Al            8.8522920792        5.1150492217       -0.0006159726
N             8.8734595517        6.8100943030        1.1700393674
Al           10.3284028838        5.9711006707        2.4096392495
N            10.3460723608        7.6451861109        3.6129649337
Al           11.8017843453        6.8202682946        4.8169528555
N            11.8028296896        8.5347165485        6.0211492735
Ti           13.2592329077        7.6568645782        7.2216511596
N            13.2755453321        9.4005874057        8.4437670594
Al           10.3262712522        7.6776668483       -0.0050360202
N            10.3642515332        9.3584514576        1.1887605250
Al           11.8015873195        8.5278638567        2.4031157437
N            11.8255951153       10.2439034222        3.5960154149
Ti           13.2574829118        9.3724107736        4.8227977952
N            13.2763126207       11.0832191829        6.0229421269
Al           14.7556660082       10.2352840676        7.2305157285
N            14.7693121141       11.9076589743        8.4297895914
Al            8.8545530409        0.0035155889       -0.0015436452
N             8.8702829243        1.6754025282        1.2037207550
Al           10.3254956212        0.8567902697        2.4090895238
N            10.3287522206        2.5189243808        3.6289596436
Al           11.7999433910        1.7081756177        4.8126160356
N            11.7781191732        3.4008003042        6.0415281184
Ti           19.1957384011       12.8253129988        7.2073977628
N            13.2564481838        4.2505790219        8.4438611584
Al           10.3248480191        2.5572423177       -0.0056729401
N            10.3043441514        4.2778403023        1.1870416852
Ti           11.8135169314        3.4152817582        2.3966098401
N            11.7999458584        5.1563534158        3.5903454662
Ti           13.2843664814        4.2519745662        4.8300404292
N            13.2536233278        5.9843524854        6.0102613370
Ti           14.7513388260        5.1064711383        7.2281495238
N            14.7924902845        6.8492763831        8.4487155437
Ti           11.8218486151        5.0863934342        0.0151565313
N            11.8037048782        6.8400927189        1.2120484804
Al           13.2765115613        5.9695635201        2.4084450548
N            13.2590912268        7.6476677258        3.6115514321
Al           14.7566431647        6.8201876556        4.8149750673
N            14.7889591328        8.5301413972        6.0194392354
Al           16.2254022267        7.6766675971        7.2267948544
N            16.2112553350        9.3935191423        8.4185241410
Al           13.2816553648        7.6774696688       -0.0050867059
N            13.2603418721        9.3916400593        1.1893907374
Ti           14.7802904716        8.5114678397        2.4142360043
N            14.7687073821       10.2645662895        3.6097865049
Al           16.2284477935        9.3806720125        4.8149219588
N            16.2266961022       11.0875590125        6.0224065932
Al           17.7019074570       10.2322421005        7.2267344170
N            17.6841444936       11.9249828981        8.4470463726



     Writing config-only to output data dir ../output/TiAlN.save/
     NEW-OLD atomic charge density approx. for the potential

     Check: negative core charge=   -0.000007
     extrapolated charge  762.09733, renormalised to  800.00000

     total cpu time spent up to now is     1907.0 secs

     Self-consistent Calculation

     iteration #  1     ecut=    80.00 Ry     beta= 0.20
     Davidson diagonalization with overlap
     c_bands:  3 eigenvalues not converged
     c_bands:  3 eigenvalues not converged
     ethr =  1.00E-06,  avg # of iterations = 44.2

     total cpu time spent up to now is     2650.6 secs

     total energy              =   -8905.74470189 Ry
     estimated scf accuracy    <     507.88171499 Ry

     iteration #  2     ecut=    80.00 Ry     beta= 0.20
     Davidson diagonalization with overlap
     ethr =  1.00E-02,  avg # of iterations =  4.0

     total cpu time spent up to now is     2751.0 secs

     total energy              =   -8962.53832601 Ry
     estimated scf accuracy    <      20.71981472 Ry

     iteration #  3     ecut=    80.00 Ry     beta= 0.20
     Davidson diagonalization with overlap
     ethr =  2.59E-03,  avg # of iterations =  2.0

     total cpu time spent up to now is     2827.1 secs

     total energy              =   -8962.32982741 Ry
     estimated scf accuracy    <      14.44089555 Ry

     iteration #  4     ecut=    80.00 Ry     beta= 0.20
     Davidson diagonalization with overlap
     ethr =  1.81E-03,  avg # of iterations =  1.0

     total cpu time spent up to now is     2897.5 secs

     total energy              =   -8961.68710581 Ry
     estimated scf accuracy    <       9.68889169 Ry

     iteration #  5     ecut=    80.00 Ry     beta= 0.20
     Davidson diagonalization with overlap
     ethr =  1.21E-03,  avg # of iterations =  1.1

     total cpu time spent up to now is     2969.8 secs

     total energy              =   -8961.67715999 Ry
     estimated scf accuracy    <       4.50144455 Ry

     iteration #  6     ecut=    80.00 Ry     beta= 0.20
     Davidson diagonalization with overlap
     ethr =  5.63E-04,  avg # of iterations =  1.2

     total cpu time spent up to now is     3044.1 secs

     total energy              =   -8961.52231669 Ry
     estimated scf accuracy    <       3.67618947 Ry

     iteration #  7     ecut=    80.00 Ry     beta= 0.20
     Davidson diagonalization with overlap
     ethr =  4.60E-04,  avg # of iterations =  1.1

     total cpu time spent up to now is     3117.1 secs

     total energy              =   -8961.47530597 Ry
     estimated scf accuracy    <       2.49748265 Ry

     iteration #  8     ecut=    80.00 Ry     beta= 0.20
     Davidson diagonalization with overlap
     ethr =  3.12E-04,  avg # of iterations =  1.6

     total cpu time spent up to now is     3192.3 secs

     total energy              =   -8961.38728847 Ry
     estimated scf accuracy    <       1.92852118 Ry

     iteration #  9     ecut=    80.00 Ry     beta= 0.20
     Davidson diagonalization with overlap
     ethr =  2.41E-04,  avg # of iterations =  2.9

     total cpu time spent up to now is     3269.7 secs

     total energy              =   -8961.35470215 Ry
     estimated scf accuracy    <       1.25055492 Ry

     iteration # 10     ecut=    80.00 Ry     beta= 0.20
     Davidson diagonalization with overlap
     ethr =  1.56E-04,  avg # of iterations =  4.8

     total cpu time spent up to now is     3349.1 secs

     total energy              =   -8961.19798287 Ry
     estimated scf accuracy    <       0.82760739 Ry

     iteration # 11     ecut=    80.00 Ry     beta= 0.20
     Davidson diagonalization with overlap
     ethr =  1.03E-04,  avg # of iterations = 14.4

     total cpu time spent up to now is     3455.5 secs

     total energy              =   -8961.29414169 Ry
     estimated scf accuracy    <       0.01973807 Ry

     iteration # 12     ecut=    80.00 Ry     beta= 0.20
     Davidson diagonalization with overlap
     c_bands:  2 eigenvalues not converged
