
     Program PWSCF v.7.1 starts on  6May2026 at 10:14:27 

     This program is part of the open-source Quantum ESPRESSO suite
     for quantum simulation of materials; please cite
         "P. Giannozzi et al., J. Phys.:Condens. Matter 21 395502 (2009);
         "P. Giannozzi et al., J. Phys.:Condens. Matter 29 465901 (2017);
         "P. Giannozzi et al., J. Chem. Phys. 152 154105 (2020);
          URL http://www.quantum-espresso.org", 
     in publications or presentations arising from this work. More details at
     http://www.quantum-espresso.org/quote

     Parallel version (MPI & OpenMP), running on      96 processor cores
     Number of MPI processes:                96
     Threads/MPI process:                     1

     MPI processes distributed on     3 nodes
     89721 MiB available memory on the printing compute node when the environment starts
 
     Reading input from AlN_scf.in

     Current dimensions of program PWSCF are:
     Max number of different atomic species (ntypx) = 10
     Max number of k-points (npk) = 150000
     Max angular momentum in pseudopotentials (lmaxx) =  4
     file Al.pbe-n-kjpaw_psl.1.0.0.UPF: wavefunction(s)  3S 3P renormalized
     file N.pbe-n-kjpaw_psl.1.0.0.UPF: wavefunction(s)  2S renormalized
     Message from routine setup:
     using ibrav=0 with symmetry is DISCOURAGED, use correct ibrav instead
 
     K-points division:     npool     =       2
     R & G space division:  proc/nbgrp/npool/nimage =      48
     Subspace diagonalization in iterative solution of the eigenvalue problem:
     a serial algorithm will be used

 
     Parallelization info
     --------------------
     sticks:   dense  smooth     PW     G-vecs:    dense   smooth      PW
     Min          34      34      9                  908      908     140
     Max          35      35     10                  910      910     145
     Sum        1639    1639    475                43599    43599    6855
 
     Using Slab Decomposition
 


     bravais-lattice index     =            0
     lattice parameter (alat)  =       5.4385  a.u.
     unit-cell volume          =     113.7417 (a.u.)^3
     number of atoms/cell      =            2
     number of atomic types    =            2
     number of electrons       =         8.00
     number of Kohn-Sham states=            8
     kinetic-energy cutoff     =     200.0000  Ry
     charge density cutoff     =     800.0000  Ry
     scf convergence threshold =      1.0E-08
     mixing beta               =       0.2000
     number of iterations used =            8  local-TF  mixing
     Exchange-correlation= SLA  PW   PBX  PBC
                           (   1   4   3   4   0   0   0)

     celldm(1)=   5.438489  celldm(2)=   0.000000  celldm(3)=   0.000000
     celldm(4)=   0.000000  celldm(5)=   0.000000  celldm(6)=   0.000000

     crystal axes: (cart. coord. in units of alat)
               a(1) = (  -0.707107   0.000000   0.707107 )  
               a(2) = (   0.000000   0.707107   0.707107 )  
               a(3) = (  -0.707107   0.707107   0.000000 )  

     reciprocal axes: (cart. coord. in units 2 pi/alat)
               b(1) = ( -0.707107 -0.707107  0.707107 )  
               b(2) = (  0.707107  0.707107  0.707107 )  
               b(3) = ( -0.707107  0.707107 -0.707107 )  


     PseudoPot. # 1 for Al read from file:
     ../../pseudo/Al.pbe-n-kjpaw_psl.1.0.0.UPF
     MD5 check sum: 502b6b27b9c6270cab5dd1084b96fa6d
     Pseudo is Projector augmented-wave + core cor, Zval =  3.0
     Generated using &quot;atomic&quot; code by A. Dal Corso  v.6.3
     Shape of augmentation charge: PSQ
     Using radial grid of 1135 points,  6 beta functions with: 
                l(1) =   0
                l(2) =   0
                l(3) =   1
                l(4) =   1
                l(5) =   2
                l(6) =   2
     Q(r) pseudized with 0 coefficients 


     PseudoPot. # 2 for N  read from file:
     ../../pseudo/N.pbe-n-kjpaw_psl.1.0.0.UPF
     MD5 check sum: 14c48229446f9f2d411169a3abcbc3fa
     Pseudo is Projector augmented-wave + core cor, Zval =  5.0
     Generated using &quot;atomic&quot; code by A. Dal Corso  v.6.3
     Shape of augmentation charge: PSQ
     Using radial grid of 1085 points,  4 beta functions with: 
                l(1) =   0
                l(2) =   0
                l(3) =   1
                l(4) =   1
     Q(r) pseudized with 0 coefficients 


     atomic species   valence    mass     pseudopotential
        Al             3.00    26.98200     Al( 1.00)
        N              5.00    14.00700     N ( 1.00)

     48 Sym. Ops., with inversion, found



   Cartesian axes

     site n.     atom                  positions (alat units)
         1           Al  tau(   1) = (   0.0000000   0.0000000   0.0000000  )
         2           N   tau(   2) = (  -0.7071068   0.7071068   0.7071068  )

     number of k points=  1661  Gaussian smearing, width (Ry)=  0.0050

     Number of k-points >= 100: set verbosity='high' to print them.

     Dense  grid:    43599 G-vectors     FFT dimensions: (  50,  50,  50)

     Estimated max dynamical RAM per process >      18.20 MB

     Estimated total dynamical RAM >       1.70 GB

     Initial potential from superposition of free atoms

     starting charge       7.9977, renormalised to       8.0000
     Starting wfcs are    8 randomized atomic wfcs
     Checking if some PAW data can be deallocated... 

     total cpu time spent up to now is        3.2 secs

     Self-consistent Calculation

     iteration #  1     ecut=   200.00 Ry     beta= 0.20
     Davidson diagonalization with overlap
     ethr =  1.00E-02,  avg # of iterations =  4.1

     total cpu time spent up to now is       11.8 secs

     total energy              =     -67.96467731 Ry
     estimated scf accuracy    <       0.41888227 Ry

     iteration #  2     ecut=   200.00 Ry     beta= 0.20
     Davidson diagonalization with overlap
     ethr =  5.24E-03,  avg # of iterations =  1.0

     total cpu time spent up to now is       17.0 secs

     total energy              =     -67.86446467 Ry
     estimated scf accuracy    <       0.23104579 Ry

     iteration #  3     ecut=   200.00 Ry     beta= 0.20
     Davidson diagonalization with overlap
     ethr =  2.89E-03,  avg # of iterations =  1.7

     total cpu time spent up to now is       22.6 secs

     total energy              =     -67.90319391 Ry
     estimated scf accuracy    <       0.00698883 Ry

     iteration #  4     ecut=   200.00 Ry     beta= 0.20
     Davidson diagonalization with overlap
     ethr =  8.74E-05,  avg # of iterations =  2.1

     total cpu time spent up to now is       28.8 secs

     total energy              =     -67.90320720 Ry
     estimated scf accuracy    <       0.00165289 Ry

     iteration #  5     ecut=   200.00 Ry     beta= 0.20
     Davidson diagonalization with overlap
     ethr =  2.07E-05,  avg # of iterations =  1.6

     total cpu time spent up to now is       34.3 secs

     total energy              =     -67.90341119 Ry
     estimated scf accuracy    <       0.00000977 Ry

     iteration #  6     ecut=   200.00 Ry     beta= 0.20
     Davidson diagonalization with overlap
     ethr =  1.22E-07,  avg # of iterations =  3.6

     total cpu time spent up to now is       42.2 secs

     total energy              =     -67.90336847 Ry
     estimated scf accuracy    <       0.00011547 Ry

     iteration #  7     ecut=   200.00 Ry     beta= 0.20
     Davidson diagonalization with overlap
     ethr =  1.22E-07,  avg # of iterations =  2.4

     total cpu time spent up to now is       48.9 secs

     total energy              =     -67.90339360 Ry
     estimated scf accuracy    <       0.00000328 Ry

     iteration #  8     ecut=   200.00 Ry     beta= 0.20
     Davidson diagonalization with overlap
     ethr =  4.10E-08,  avg # of iterations =  2.0

     total cpu time spent up to now is       54.7 secs

     total energy              =     -67.90339438 Ry
     estimated scf accuracy    <       0.00000025 Ry

     iteration #  9     ecut=   200.00 Ry     beta= 0.20
     Davidson diagonalization with overlap
     ethr =  3.14E-09,  avg # of iterations =  1.3

     total cpu time spent up to now is       60.1 secs

     total energy              =     -67.90339436 Ry
     estimated scf accuracy    <       0.00000007 Ry

     iteration # 10     ecut=   200.00 Ry     beta= 0.20
     Davidson diagonalization with overlap
     ethr =  8.91E-10,  avg # of iterations =  1.1

     total cpu time spent up to now is       65.2 secs

     End of self-consistent calculation

     Number of k-points >= 100: set verbosity='high' to print the bands.

     the Fermi energy is    12.9199 ev

!    total energy              =     -67.90339436 Ry
     total all-electron energy =      -595.344973 Ry
     estimated scf accuracy    <          5.5E-09 Ry
     smearing contrib. (-TS)   =      -0.00000000 Ry
     internal energy E=F+TS    =     -67.90339436 Ry

     The total energy is F=E-TS. E is the sum of the following terms:
     one-electron contribution =       3.32975521 Ry
     hartree contribution      =       4.56028396 Ry
     xc contribution           =      -8.64068812 Ry
     ewald contribution        =     -24.51862769 Ry
     one-center paw contrib.   =     -42.63411773 Ry

     convergence has been achieved in  10 iterations

     Forces acting on atoms (cartesian axes, Ry/au):

     atom    1 type  1   force =     0.00000000    0.00000000    0.00000000
     atom    2 type  2   force =    -0.00000000   -0.00000000    0.00000000

     Total force =     0.000000     Total SCF correction =     0.000000


     Computing stress (Cartesian axis) and pressure

          total   stress  (Ry/bohr**3)                   (kbar)     P=        6.20
   0.00004214   0.00000000   0.00000000            6.20        0.00        0.00
   0.00000000   0.00004214  -0.00000000            0.00        6.20       -0.00
   0.00000000  -0.00000000   0.00004214            0.00       -0.00        6.20


     Writing all to output data dir ../output/AlN.save/
 
     init_run     :      1.96s CPU      2.19s WALL (       1 calls)
     electrons    :     59.02s CPU     62.13s WALL (       1 calls)
     forces       :      0.34s CPU      0.35s WALL (       1 calls)
     stress       :      0.69s CPU      0.71s WALL (       1 calls)

     Called by init_run:
     wfcinit      :      1.84s CPU      1.94s WALL (       1 calls)
     potinit      :      0.04s CPU      0.07s WALL (       1 calls)
     hinit0       :      0.04s CPU      0.12s WALL (       1 calls)

     Called by electrons:
     c_bands      :     50.20s CPU     52.77s WALL (      10 calls)
     sum_band     :      8.32s CPU      8.71s WALL (      10 calls)
     v_of_rho     :      0.05s CPU      0.05s WALL (      11 calls)
     newd         :      0.02s CPU      0.03s WALL (      11 calls)
     PAW_pot      :      0.39s CPU      0.40s WALL (      11 calls)
     mix_rho      :      0.06s CPU      0.06s WALL (      10 calls)

     Called by c_bands:
     init_us_2    :      0.89s CPU      0.94s WALL (   19113 calls)
     init_us_2:cp :      0.81s CPU      0.86s WALL (   19113 calls)
     cegterg      :     45.37s CPU     47.58s WALL (    8310 calls)

     Called by *egterg:
     cdiaghg      :      2.85s CPU      3.01s WALL (   26317 calls)
     h_psi        :     38.75s CPU     40.61s WALL (   27148 calls)
     s_psi        :      0.31s CPU      0.33s WALL (   27148 calls)
     g_psi        :      0.11s CPU      0.11s WALL (   18007 calls)

     Called by h_psi:
     h_psi:calbec :      1.92s CPU      2.00s WALL (   27148 calls)
     vloc_psi     :     36.05s CPU     37.79s WALL (   27148 calls)
     add_vuspsi   :      0.38s CPU      0.40s WALL (   27148 calls)

     General routines
     calbec       :      2.47s CPU      2.58s WALL (   39613 calls)
     fft          :      0.04s CPU      0.13s WALL (     146 calls)
     ffts         :      0.04s CPU      0.04s WALL (     177 calls)
     fftw         :     40.19s CPU     42.11s WALL (  398396 calls)
 
     Parallel routines
 
     PWSCF        :   1m 7.27s CPU   1m14.30s WALL

 
   This run was terminated on:  10:15:42   6May2026            

=------------------------------------------------------------------------------=
   JOB DONE.
=------------------------------------------------------------------------------=
