
     Program PWSCF v.7.1 starts on  6May2026 at 10:15:26 

     This program is part of the open-source Quantum ESPRESSO suite
     for quantum simulation of materials; please cite
         "P. Giannozzi et al., J. Phys.:Condens. Matter 21 395502 (2009);
         "P. Giannozzi et al., J. Phys.:Condens. Matter 29 465901 (2017);
         "P. Giannozzi et al., J. Chem. Phys. 152 154105 (2020);
          URL http://www.quantum-espresso.org", 
     in publications or presentations arising from this work. More details at
     http://www.quantum-espresso.org/quote

     Parallel version (MPI & OpenMP), running on      32 processor cores
     Number of MPI processes:                32
     Threads/MPI process:                     1

     MPI processes distributed on     1 nodes
     91074 MiB available memory on the printing compute node when the environment starts
 
     Reading input from AlN_scf.in

     Current dimensions of program PWSCF are:
     Max number of different atomic species (ntypx) = 10
     Max number of k-points (npk) = 150000
     Max angular momentum in pseudopotentials (lmaxx) =  4
     file Al.pbe-n-kjpaw_psl.1.0.0.UPF: wavefunction(s)  3S 3P renormalized
     file N.pbe-n-kjpaw_psl.1.0.0.UPF: wavefunction(s)  2S renormalized
     Message from routine setup:
     using ibrav=0 with symmetry is DISCOURAGED, use correct ibrav instead
 
     K-points division:     npool     =       2
     R & G space division:  proc/nbgrp/npool/nimage =      16
     Subspace diagonalization in iterative solution of the eigenvalue problem:
     a serial algorithm will be used

 
     Parallelization info
     --------------------
     sticks:   dense  smooth     PW     G-vecs:    dense   smooth      PW
     Min         102     102     29                 2724     2724     427
     Max         104     104     30                 2726     2726     430
     Sum        1639    1639    475                43599    43599    6855
 
     Using Slab Decomposition
 


     bravais-lattice index     =            0
     lattice parameter (alat)  =       5.4385  a.u.
     unit-cell volume          =     113.7417 (a.u.)^3
     number of atoms/cell      =            2
     number of atomic types    =            2
     number of electrons       =         8.00
     number of Kohn-Sham states=            8
     kinetic-energy cutoff     =     200.0000  Ry
     charge density cutoff     =     800.0000  Ry
     scf convergence threshold =      1.0E-08
     mixing beta               =       0.2000
     number of iterations used =            8  local-TF  mixing
     Exchange-correlation= SLA  PW   PBX  PBC
                           (   1   4   3   4   0   0   0)

     celldm(1)=   5.438489  celldm(2)=   0.000000  celldm(3)=   0.000000
     celldm(4)=   0.000000  celldm(5)=   0.000000  celldm(6)=   0.000000

     crystal axes: (cart. coord. in units of alat)
               a(1) = (  -0.707107   0.000000   0.707107 )  
               a(2) = (   0.000000   0.707107   0.707107 )  
               a(3) = (  -0.707107   0.707107   0.000000 )  

     reciprocal axes: (cart. coord. in units 2 pi/alat)
               b(1) = ( -0.707107 -0.707107  0.707107 )  
               b(2) = (  0.707107  0.707107  0.707107 )  
               b(3) = ( -0.707107  0.707107 -0.707107 )  


     PseudoPot. # 1 for Al read from file:
     ../../pseudo/Al.pbe-n-kjpaw_psl.1.0.0.UPF
     MD5 check sum: 502b6b27b9c6270cab5dd1084b96fa6d
     Pseudo is Projector augmented-wave + core cor, Zval =  3.0
     Generated using &quot;atomic&quot; code by A. Dal Corso  v.6.3
     Shape of augmentation charge: PSQ
     Using radial grid of 1135 points,  6 beta functions with: 
                l(1) =   0
                l(2) =   0
                l(3) =   1
                l(4) =   1
                l(5) =   2
                l(6) =   2
     Q(r) pseudized with 0 coefficients 


     PseudoPot. # 2 for N  read from file:
     ../../pseudo/N.pbe-n-kjpaw_psl.1.0.0.UPF
     MD5 check sum: 14c48229446f9f2d411169a3abcbc3fa
     Pseudo is Projector augmented-wave + core cor, Zval =  5.0
     Generated using &quot;atomic&quot; code by A. Dal Corso  v.6.3
     Shape of augmentation charge: PSQ
     Using radial grid of 1085 points,  4 beta functions with: 
                l(1) =   0
                l(2) =   0
                l(3) =   1
                l(4) =   1
     Q(r) pseudized with 0 coefficients 


     atomic species   valence    mass     pseudopotential
        Al             3.00    26.98200     Al( 1.00)
        N              5.00    14.00700     N ( 1.00)

     48 Sym. Ops., with inversion, found



   Cartesian axes

     site n.     atom                  positions (alat units)
         1           Al  tau(   1) = (   0.0000000   0.0000000   0.0000000  )
         2           N   tau(   2) = (  -0.7071068   0.7071068   0.7071068  )

     number of k points=  1661  Gaussian smearing, width (Ry)=  0.0050

     Number of k-points >= 100: set verbosity='high' to print them.

     Dense  grid:    43599 G-vectors     FFT dimensions: (  50,  50,  50)

     Estimated max dynamical RAM per process >      45.19 MB

     Estimated total dynamical RAM >       1.40 GB

     Initial potential from superposition of free atoms

     starting charge       7.9977, renormalised to       8.0000
     Starting wfcs are    8 randomized atomic wfcs
     Checking if some PAW data can be deallocated... 

     total cpu time spent up to now is        2.5 secs

     Self-consistent Calculation

     iteration #  1     ecut=   200.00 Ry     beta= 0.20
     Davidson diagonalization with overlap
     ethr =  1.00E-02,  avg # of iterations =  4.1

     total cpu time spent up to now is       11.1 secs

     total energy              =     -67.96464652 Ry
     estimated scf accuracy    <       0.41895734 Ry

     iteration #  2     ecut=   200.00 Ry     beta= 0.20
     Davidson diagonalization with overlap
     ethr =  5.24E-03,  avg # of iterations =  1.0

     total cpu time spent up to now is       16.3 secs

     total energy              =     -67.86446455 Ry
     estimated scf accuracy    <       0.23106243 Ry

     iteration #  3     ecut=   200.00 Ry     beta= 0.20
     Davidson diagonalization with overlap
     ethr =  2.89E-03,  avg # of iterations =  1.7

     total cpu time spent up to now is       21.9 secs

     total energy              =     -67.90319386 Ry
     estimated scf accuracy    <       0.00699205 Ry

     iteration #  4     ecut=   200.00 Ry     beta= 0.20
     Davidson diagonalization with overlap
     ethr =  8.74E-05,  avg # of iterations =  2.1

     total cpu time spent up to now is       28.2 secs

     total energy              =     -67.90320610 Ry
     estimated scf accuracy    <       0.00166415 Ry

     iteration #  5     ecut=   200.00 Ry     beta= 0.20
     Davidson diagonalization with overlap
     ethr =  2.08E-05,  avg # of iterations =  1.6

     total cpu time spent up to now is       33.9 secs

     total energy              =     -67.90341065 Ry
     estimated scf accuracy    <       0.00000981 Ry

     iteration #  6     ecut=   200.00 Ry     beta= 0.20
     Davidson diagonalization with overlap
     ethr =  1.23E-07,  avg # of iterations =  3.6

     total cpu time spent up to now is       41.9 secs

     total energy              =     -67.90336889 Ry
     estimated scf accuracy    <       0.00011316 Ry

     iteration #  7     ecut=   200.00 Ry     beta= 0.20
     Davidson diagonalization with overlap
     ethr =  1.23E-07,  avg # of iterations =  2.3

     total cpu time spent up to now is       48.4 secs

     total energy              =     -67.90339356 Ry
     estimated scf accuracy    <       0.00000340 Ry

     iteration #  8     ecut=   200.00 Ry     beta= 0.20
     Davidson diagonalization with overlap
     ethr =  4.25E-08,  avg # of iterations =  2.0

     total cpu time spent up to now is       54.5 secs

     total energy              =     -67.90339438 Ry
     estimated scf accuracy    <       0.00000026 Ry

     iteration #  9     ecut=   200.00 Ry     beta= 0.20
     Davidson diagonalization with overlap
     ethr =  3.26E-09,  avg # of iterations =  1.3

     total cpu time spent up to now is       60.0 secs

     total energy              =     -67.90339436 Ry
     estimated scf accuracy    <       0.00000007 Ry

     iteration # 10     ecut=   200.00 Ry     beta= 0.20
     Davidson diagonalization with overlap
     ethr =  8.83E-10,  avg # of iterations =  1.2

     total cpu time spent up to now is       65.3 secs

     End of self-consistent calculation

     Number of k-points >= 100: set verbosity='high' to print the bands.

     the Fermi energy is    12.9199 ev

!    total energy              =     -67.90339436 Ry
     total all-electron energy =      -595.344973 Ry
     estimated scf accuracy    <          5.7E-09 Ry
     smearing contrib. (-TS)   =      -0.00000000 Ry
     internal energy E=F+TS    =     -67.90339436 Ry

     The total energy is F=E-TS. E is the sum of the following terms:
     one-electron contribution =       3.32975258 Ry
     hartree contribution      =       4.56028752 Ry
     xc contribution           =      -8.64068906 Ry
     ewald contribution        =     -24.51862769 Ry
     one-center paw contrib.   =     -42.63411772 Ry

     convergence has been achieved in  10 iterations

     Forces acting on atoms (cartesian axes, Ry/au):

     atom    1 type  1   force =     0.00000000    0.00000000    0.00000000
     atom    2 type  2   force =     0.00000000   -0.00000000    0.00000000

     Total force =     0.000000     Total SCF correction =     0.000000


     Computing stress (Cartesian axis) and pressure

          total   stress  (Ry/bohr**3)                   (kbar)     P=        6.20
   0.00004216  -0.00000000   0.00000000            6.20       -0.00        0.00
  -0.00000000   0.00004216   0.00000000           -0.00        6.20        0.00
   0.00000000   0.00000000   0.00004216            0.00        0.00        6.20


     Writing all to output data dir ../output/AlN.save/
 
     init_run     :      2.06s CPU      2.19s WALL (       1 calls)
     electrons    :     59.75s CPU     62.86s WALL (       1 calls)
     forces       :      0.54s CPU      0.55s WALL (       1 calls)
     stress       :      1.58s CPU      1.61s WALL (       1 calls)

     Called by init_run:
     wfcinit      :      1.90s CPU      1.98s WALL (       1 calls)
     potinit      :      0.04s CPU      0.05s WALL (       1 calls)
     hinit0       :      0.05s CPU      0.09s WALL (       1 calls)

     Called by electrons:
     c_bands      :     50.32s CPU     52.97s WALL (      10 calls)
     sum_band     :      8.98s CPU      9.38s WALL (      10 calls)
     v_of_rho     :      0.05s CPU      0.05s WALL (      11 calls)
     newd         :      0.06s CPU      0.06s WALL (      11 calls)
     PAW_pot      :      0.33s CPU      0.34s WALL (      11 calls)
     mix_rho      :      0.05s CPU      0.05s WALL (      10 calls)

     Called by c_bands:
     init_us_2    :      1.95s CPU      2.06s WALL (   19113 calls)
     init_us_2:cp :      1.87s CPU      1.98s WALL (   19113 calls)
     cegterg      :     43.81s CPU     45.94s WALL (    8310 calls)

     Called by *egterg:
     cdiaghg      :      2.69s CPU      2.84s WALL (   26293 calls)
     h_psi        :     37.89s CPU     39.68s WALL (   27124 calls)
     s_psi        :      0.54s CPU      0.57s WALL (   27124 calls)
     g_psi        :      0.20s CPU      0.21s WALL (   17983 calls)

     Called by h_psi:
     h_psi:calbec :      1.33s CPU      1.40s WALL (   27124 calls)
     vloc_psi     :     35.55s CPU     37.21s WALL (   27124 calls)
     add_vuspsi   :      0.60s CPU      0.63s WALL (   27124 calls)

     General routines
     calbec       :      1.80s CPU      1.89s WALL (   39589 calls)
     fft          :      0.03s CPU      0.06s WALL (     146 calls)
     ffts         :      0.03s CPU      0.03s WALL (     177 calls)
     fftw         :     38.31s CPU     40.09s WALL (  398158 calls)
 
     Parallel routines
 
     PWSCF        :   1m 5.65s CPU   1m15.71s WALL

 
   This run was terminated on:  10:16:41   6May2026            

=------------------------------------------------------------------------------=
   JOB DONE.
=------------------------------------------------------------------------------=
