
     Program PWSCF v.7.1 starts on  6May2026 at 10:14:27 

     This program is part of the open-source Quantum ESPRESSO suite
     for quantum simulation of materials; please cite
         "P. Giannozzi et al., J. Phys.:Condens. Matter 21 395502 (2009);
         "P. Giannozzi et al., J. Phys.:Condens. Matter 29 465901 (2017);
         "P. Giannozzi et al., J. Chem. Phys. 152 154105 (2020);
          URL http://www.quantum-espresso.org", 
     in publications or presentations arising from this work. More details at
     http://www.quantum-espresso.org/quote

     Parallel version (MPI & OpenMP), running on     128 processor cores
     Number of MPI processes:               128
     Threads/MPI process:                     1

     MPI processes distributed on     4 nodes
     89876 MiB available memory on the printing compute node when the environment starts
 
     Reading input from AlN_scf.in

     Current dimensions of program PWSCF are:
     Max number of different atomic species (ntypx) = 10
     Max number of k-points (npk) = 150000
     Max angular momentum in pseudopotentials (lmaxx) =  4
     file Al.pbe-n-kjpaw_psl.1.0.0.UPF: wavefunction(s)  3S 3P renormalized
     file N.pbe-n-kjpaw_psl.1.0.0.UPF: wavefunction(s)  2S renormalized
     Message from routine setup:
     using ibrav=0 with symmetry is DISCOURAGED, use correct ibrav instead
 
     K-points division:     npool     =       2
     R & G space division:  proc/nbgrp/npool/nimage =      64
     WARNING: too many processors for an effective parallelization!
     wavefunctions fft division:  task group distribution
                                  #TG    x Z-proc =       8      8
     Subspace diagonalization in iterative solution of the eigenvalue problem:
     a serial algorithm will be used

 
     Parallelization info
     --------------------
     sticks:   dense  smooth     PW     G-vecs:    dense   smooth      PW
     Min          25      25      7                  679      679     106
     Max          26      26      8                  684      684     109
     Sum        1639    1639    475                43599    43599    6855
 
     Using Pencil Decomposition
 


     bravais-lattice index     =            0
     lattice parameter (alat)  =       5.4385  a.u.
     unit-cell volume          =     113.7417 (a.u.)^3
     number of atoms/cell      =            2
     number of atomic types    =            2
     number of electrons       =         8.00
     number of Kohn-Sham states=            8
     kinetic-energy cutoff     =     200.0000  Ry
     charge density cutoff     =     800.0000  Ry
     scf convergence threshold =      1.0E-08
     mixing beta               =       0.2000
     number of iterations used =            8  local-TF  mixing
     Exchange-correlation= SLA  PW   PBX  PBC
                           (   1   4   3   4   0   0   0)

     celldm(1)=   5.438489  celldm(2)=   0.000000  celldm(3)=   0.000000
     celldm(4)=   0.000000  celldm(5)=   0.000000  celldm(6)=   0.000000

     crystal axes: (cart. coord. in units of alat)
               a(1) = (  -0.707107   0.000000   0.707107 )  
               a(2) = (   0.000000   0.707107   0.707107 )  
               a(3) = (  -0.707107   0.707107   0.000000 )  

     reciprocal axes: (cart. coord. in units 2 pi/alat)
               b(1) = ( -0.707107 -0.707107  0.707107 )  
               b(2) = (  0.707107  0.707107  0.707107 )  
               b(3) = ( -0.707107  0.707107 -0.707107 )  


     PseudoPot. # 1 for Al read from file:
     ../../pseudo/Al.pbe-n-kjpaw_psl.1.0.0.UPF
     MD5 check sum: 502b6b27b9c6270cab5dd1084b96fa6d
     Pseudo is Projector augmented-wave + core cor, Zval =  3.0
     Generated using &quot;atomic&quot; code by A. Dal Corso  v.6.3
     Shape of augmentation charge: PSQ
     Using radial grid of 1135 points,  6 beta functions with: 
                l(1) =   0
                l(2) =   0
                l(3) =   1
                l(4) =   1
                l(5) =   2
                l(6) =   2
     Q(r) pseudized with 0 coefficients 


     PseudoPot. # 2 for N  read from file:
     ../../pseudo/N.pbe-n-kjpaw_psl.1.0.0.UPF
     MD5 check sum: 14c48229446f9f2d411169a3abcbc3fa
     Pseudo is Projector augmented-wave + core cor, Zval =  5.0
     Generated using &quot;atomic&quot; code by A. Dal Corso  v.6.3
     Shape of augmentation charge: PSQ
     Using radial grid of 1085 points,  4 beta functions with: 
                l(1) =   0
                l(2) =   0
                l(3) =   1
                l(4) =   1
     Q(r) pseudized with 0 coefficients 


     atomic species   valence    mass     pseudopotential
        Al             3.00    26.98200     Al( 1.00)
        N              5.00    14.00700     N ( 1.00)

     48 Sym. Ops., with inversion, found



   Cartesian axes

     site n.     atom                  positions (alat units)
         1           Al  tau(   1) = (   0.0000000   0.0000000   0.0000000  )
         2           N   tau(   2) = (  -0.7071068   0.7071068   0.7071068  )

     number of k points=  1661  Gaussian smearing, width (Ry)=  0.0050

     Number of k-points >= 100: set verbosity='high' to print them.

     Dense  grid:    43599 G-vectors     FFT dimensions: (  50,  50,  50)

     Estimated max dynamical RAM per process >      14.63 MB

     Estimated total dynamical RAM >       1.82 GB

     Initial potential from superposition of free atoms

     starting charge       7.9977, renormalised to       8.0000
     Starting wfcs are    8 randomized atomic wfcs
     Checking if some PAW data can be deallocated... 

     total cpu time spent up to now is        3.4 secs

     Self-consistent Calculation

     iteration #  1     ecut=   200.00 Ry     beta= 0.20
     Davidson diagonalization with overlap
     ethr =  1.00E-02,  avg # of iterations =  4.1

     total cpu time spent up to now is       13.2 secs

     total energy              =     -67.96464410 Ry
     estimated scf accuracy    <       0.41901228 Ry

     iteration #  2     ecut=   200.00 Ry     beta= 0.20
     Davidson diagonalization with overlap
     ethr =  5.24E-03,  avg # of iterations =  1.0

     total cpu time spent up to now is       19.1 secs

     total energy              =     -67.86450863 Ry
     estimated scf accuracy    <       0.23103307 Ry

     iteration #  3     ecut=   200.00 Ry     beta= 0.20
     Davidson diagonalization with overlap
     ethr =  2.89E-03,  avg # of iterations =  1.7

     total cpu time spent up to now is       25.6 secs

     total energy              =     -67.90319199 Ry
     estimated scf accuracy    <       0.00700015 Ry

     iteration #  4     ecut=   200.00 Ry     beta= 0.20
     Davidson diagonalization with overlap
     ethr =  8.75E-05,  avg # of iterations =  2.1

     total cpu time spent up to now is       32.6 secs

     total energy              =     -67.90320018 Ry
     estimated scf accuracy    <       0.00168842 Ry

     iteration #  5     ecut=   200.00 Ry     beta= 0.20
     Davidson diagonalization with overlap
     ethr =  2.11E-05,  avg # of iterations =  1.6

     total cpu time spent up to now is       38.9 secs

     total energy              =     -67.90341107 Ry
     estimated scf accuracy    <       0.00000969 Ry

     iteration #  6     ecut=   200.00 Ry     beta= 0.20
     Davidson diagonalization with overlap
     ethr =  1.21E-07,  avg # of iterations =  3.6

     total cpu time spent up to now is       48.0 secs

     total energy              =     -67.90336825 Ry
     estimated scf accuracy    <       0.00011521 Ry

     iteration #  7     ecut=   200.00 Ry     beta= 0.20
     Davidson diagonalization with overlap
     ethr =  1.21E-07,  avg # of iterations =  2.4

     total cpu time spent up to now is       55.6 secs

     total energy              =     -67.90339350 Ry
     estimated scf accuracy    <       0.00000360 Ry

     iteration #  8     ecut=   200.00 Ry     beta= 0.20
     Davidson diagonalization with overlap
     ethr =  4.50E-08,  avg # of iterations =  2.0

     total cpu time spent up to now is       62.3 secs

     total energy              =     -67.90339437 Ry
     estimated scf accuracy    <       0.00000027 Ry

     iteration #  9     ecut=   200.00 Ry     beta= 0.20
     Davidson diagonalization with overlap
     ethr =  3.43E-09,  avg # of iterations =  1.3

     total cpu time spent up to now is       68.3 secs

     total energy              =     -67.90339436 Ry
     estimated scf accuracy    <       0.00000007 Ry

     iteration # 10     ecut=   200.00 Ry     beta= 0.20
     Davidson diagonalization with overlap
     ethr =  8.98E-10,  avg # of iterations =  1.2

     total cpu time spent up to now is       74.1 secs

     End of self-consistent calculation

     Number of k-points >= 100: set verbosity='high' to print the bands.

     the Fermi energy is    12.9199 ev

!    total energy              =     -67.90339436 Ry
     total all-electron energy =      -595.344973 Ry
     estimated scf accuracy    <          6.1E-09 Ry
     smearing contrib. (-TS)   =      -0.00000000 Ry
     internal energy E=F+TS    =     -67.90339436 Ry

     The total energy is F=E-TS. E is the sum of the following terms:
     one-electron contribution =       3.32974744 Ry
     hartree contribution      =       4.56029445 Ry
     xc contribution           =      -8.64069089 Ry
     ewald contribution        =     -24.51862769 Ry
     one-center paw contrib.   =     -42.63411767 Ry

     convergence has been achieved in  10 iterations

     Forces acting on atoms (cartesian axes, Ry/au):

     atom    1 type  1   force =     0.00000000   -0.00000000    0.00000000
     atom    2 type  2   force =    -0.00000000   -0.00000000    0.00000000

     Total force =     0.000000     Total SCF correction =     0.000000


     Computing stress (Cartesian axis) and pressure

          total   stress  (Ry/bohr**3)                   (kbar)     P=        6.21
   0.00004220   0.00000000   0.00000000            6.21        0.00        0.00
  -0.00000000   0.00004220  -0.00000000           -0.00        6.21       -0.00
  -0.00000000   0.00000000   0.00004220           -0.00        0.00        6.21


     Writing all to output data dir ../output/AlN.save/
 
     init_run     :      2.17s CPU      2.44s WALL (       1 calls)
     electrons    :     66.40s CPU     70.73s WALL (       1 calls)
     forces       :      0.29s CPU      0.30s WALL (       1 calls)
     stress       :      0.57s CPU      0.59s WALL (       1 calls)

     Called by init_run:
     wfcinit      :      2.07s CPU      2.23s WALL (       1 calls)
     potinit      :      0.05s CPU      0.08s WALL (       1 calls)
     hinit0       :      0.03s CPU      0.11s WALL (       1 calls)

     Called by electrons:
     c_bands      :     56.49s CPU     60.06s WALL (      10 calls)
     sum_band     :      9.46s CPU     10.17s WALL (      10 calls)
     v_of_rho     :      0.04s CPU      0.04s WALL (      11 calls)
     newd         :      0.02s CPU      0.02s WALL (      11 calls)
     PAW_pot      :      0.35s CPU      0.37s WALL (      11 calls)
     mix_rho      :      0.07s CPU      0.07s WALL (      10 calls)

     Called by c_bands:
     init_us_2    :      0.70s CPU      0.75s WALL (   19113 calls)
     init_us_2:cp :      0.62s CPU      0.67s WALL (   19113 calls)
     cegterg      :     51.20s CPU     54.38s WALL (    8310 calls)

     Called by *egterg:
     cdiaghg      :      2.88s CPU      3.08s WALL (   26392 calls)
     h_psi        :     44.48s CPU     47.24s WALL (   27223 calls)
     s_psi        :      0.28s CPU      0.30s WALL (   27223 calls)
     g_psi        :      0.09s CPU      0.10s WALL (   18082 calls)

     Called by h_psi:
     h_psi:calbec :      1.65s CPU      1.76s WALL (   27223 calls)
     vloc_psi     :     42.10s CPU     44.71s WALL (   27223 calls)
     vloc_psi:tg_ :      0.16s CPU      0.18s WALL (   27223 calls)
     add_vuspsi   :      0.35s CPU      0.38s WALL (   27223 calls)

     General routines
     calbec       :      2.18s CPU      2.32s WALL (   39688 calls)
     fft          :      0.04s CPU      0.11s WALL (     146 calls)
     ffts         :      0.05s CPU      0.05s WALL (     177 calls)
     fftw         :     48.17s CPU     51.25s WALL (  398476 calls)
 
     Parallel routines
     fft_scatt_xy :      2.43s CPU      2.59s WALL (  398799 calls)
     fft_scatt_yz :     35.32s CPU     37.59s WALL (  398799 calls)
     fft_scatt_tg :      1.27s CPU      1.36s WALL (  398476 calls)
 
     PWSCF        :   1m15.42s CPU   1m25.83s WALL

 
   This run was terminated on:  10:15:53   6May2026            

=------------------------------------------------------------------------------=
   JOB DONE.
=------------------------------------------------------------------------------=
