
     Program PWSCF v.7.1 starts on 11May2026 at 16: 9:19 

     This program is part of the open-source Quantum ESPRESSO suite
     for quantum simulation of materials; please cite
         "P. Giannozzi et al., J. Phys.:Condens. Matter 21 395502 (2009);
         "P. Giannozzi et al., J. Phys.:Condens. Matter 29 465901 (2017);
         "P. Giannozzi et al., J. Chem. Phys. 152 154105 (2020);
          URL http://www.quantum-espresso.org", 
     in publications or presentations arising from this work. More details at
     http://www.quantum-espresso.org/quote

     Parallel version (MPI & OpenMP), running on      32 processor cores
     Number of MPI processes:                32
     Threads/MPI process:                     1

     MPI processes distributed on     1 nodes
     91304 MiB available memory on the printing compute node when the environment starts
 
     Reading input from TiAlN_x075finalrelaxedresult815.in

     Current dimensions of program PWSCF are:
     Max number of different atomic species (ntypx) = 10
     Max number of k-points (npk) = 150000
     Max angular momentum in pseudopotentials (lmaxx) =  4
     file Al.pbe-n-kjpaw_psl.1.0.0.UPF: wavefunction(s)  3S 3P renormalized
     file N.pbe-n-kjpaw_psl.1.0.0.UPF: wavefunction(s)  2S renormalized
     file Ti.pbe-spn-kjpaw_psl.1.0.0.UPF: wavefunction(s)  3S 3P 3D renormalized
 
     K-points division:     npool     =       4
     R & G space division:  proc/nbgrp/npool/nimage =       8
     Subspace diagonalization in iterative solution of the eigenvalue problem:
     one sub-group per band group will be used
     scalapack distributed-memory algorithm (size of sub-group:  2*  2 procs)

 
     Parallelization info
     --------------------
     sticks:   dense  smooth     PW     G-vecs:    dense   smooth      PW
     Min         563     563    154                28617    28617    4099
     Max         564     564    155                28620    28620    4100
     Sum        4509    4509   1237               228943   228943   32795
 
     Using Slab Decomposition
 


     bravais-lattice index     =            0
     lattice parameter (alat)  =      15.4013  a.u.
     unit-cell volume          =    3653.1662 (a.u.)^3
     number of atoms/cell      =           64
     number of atomic types    =            3
     number of electrons       =       328.00
     number of Kohn-Sham states=          197
     kinetic-energy cutoff     =      60.0000  Ry
     charge density cutoff     =     240.0000  Ry
     scf convergence threshold =      1.0E-08
     mixing beta               =       0.2000
     number of iterations used =            8  local-TF  mixing
     Exchange-correlation= SLA  PW   PBX  PBC
                           (   1   4   3   4   0   0   0)

     celldm(1)=  15.401268  celldm(2)=   0.000000  celldm(3)=   0.000000
     celldm(4)=   0.000000  celldm(5)=   0.000000  celldm(6)=   0.000000

     crystal axes: (cart. coord. in units of alat)
               a(1) = (   1.000000   0.000000   0.000000 )  
               a(2) = (   0.000000   1.000000   0.000000 )  
               a(3) = (   0.000000   0.000000   1.000000 )  

     reciprocal axes: (cart. coord. in units 2 pi/alat)
               b(1) = (  1.000000  0.000000  0.000000 )  
               b(2) = (  0.000000  1.000000  0.000000 )  
               b(3) = (  0.000000  0.000000  1.000000 )  


     PseudoPot. # 1 for Al read from file:
     ../../../pseudo/Al.pbe-n-kjpaw_psl.1.0.0.UPF
     MD5 check sum: 502b6b27b9c6270cab5dd1084b96fa6d
     Pseudo is Projector augmented-wave + core cor, Zval =  3.0
     Generated using &quot;atomic&quot; code by A. Dal Corso  v.6.3
     Shape of augmentation charge: PSQ
     Using radial grid of 1135 points,  6 beta functions with: 
                l(1) =   0
                l(2) =   0
                l(3) =   1
                l(4) =   1
                l(5) =   2
                l(6) =   2
     Q(r) pseudized with 0 coefficients 


     PseudoPot. # 2 for N  read from file:
     ../../../pseudo/N.pbe-n-kjpaw_psl.1.0.0.UPF
     MD5 check sum: 14c48229446f9f2d411169a3abcbc3fa
     Pseudo is Projector augmented-wave + core cor, Zval =  5.0
     Generated using &quot;atomic&quot; code by A. Dal Corso  v.6.3
     Shape of augmentation charge: PSQ
     Using radial grid of 1085 points,  4 beta functions with: 
                l(1) =   0
                l(2) =   0
                l(3) =   1
                l(4) =   1
     Q(r) pseudized with 0 coefficients 


     PseudoPot. # 3 for Ti read from file:
     ../../../pseudo/Ti.pbe-spn-kjpaw_psl.1.0.0.UPF
     MD5 check sum: 01f69b0d8ba4438b2e03ac6ea4af1c0b
     Pseudo is Projector augmented-wave + core cor, Zval = 12.0
     Generated using &quot;atomic&quot; code by A. Dal Corso  v.6.2.2
     Shape of augmentation charge: PSQ
     Using radial grid of 1177 points,  6 beta functions with: 
                l(1) =   0
                l(2) =   0
                l(3) =   1
                l(4) =   1
                l(5) =   2
                l(6) =   2
     Q(r) pseudized with 0 coefficients 


     atomic species   valence    mass     pseudopotential
        Al             3.00    26.98200     Al( 1.00)
        N              5.00    14.00700     N ( 1.00)
        Ti            12.00    47.86700     Ti( 1.00)

     No symmetry found



   Cartesian axes

     site n.     atom                  positions (alat units)
         1           Al  tau(   1) = (   0.0002431   0.0015938  -0.0009903  )
         2           N   tau(   2) = (   0.2508699  -0.0013055   0.0000994  )
         3           Al  tau(   3) = (   0.0008608   0.2508972   0.2514180  )
         4           N   tau(   4) = (   0.2529887   0.2509239   0.2472764  )
         5           Al  tau(   5) = (   0.2525956  -0.0007811   0.2518885  )
         6           N   tau(   6) = (   0.0014547   0.0050566   0.2521859  )
         7           Al  tau(   7) = (   0.2514206   0.2512235   0.0001038  )
         8           N   tau(   8) = (   0.0003399   0.2512371   0.0000318  )
         9           Al  tau(   9) = (  -0.0003273   0.0029501   0.5059886  )
        10           N   tau(  10) = (   0.2501292  -0.0052673   0.5046323  )
        11           Al  tau(  11) = (  -0.0004162   0.2508579   0.7581842  )
        12           N   tau(  12) = (   0.2505253   0.2495207   0.7622050  )
        13           Al  tau(  13) = (   0.2523604  -0.0024969   0.7573901  )
        14           N   tau(  14) = (   0.0019207   0.0017932   0.7574701  )
        15           Ti  tau(  15) = (   0.2599757   0.2586923   0.5055928  )
        16           N   tau(  16) = (   0.0011282   0.2527006   0.5052065  )
        17           Al  tau(  17) = (  -0.0000819   0.5020848  -0.0036013  )
        18           N   tau(  18) = (   0.2454975   0.5059652   0.0004190  )
        19           Ti  tau(  19) = (  -0.0054543   0.7516592   0.2537817  )
        20           N   tau(  20) = (   0.2561781   0.7579137   0.2511385  )
        21           Al  tau(  21) = (   0.2537880   0.5056021   0.2491043  )
        22           N   tau(  22) = (   0.0083914   0.4973606   0.2515137  )
        23           Al  tau(  23) = (   0.2510257   0.7585341  -0.0002544  )
        24           N   tau(  24) = (  -0.0001290   0.7576055  -0.0030461  )
        25           Al  tau(  25) = (   0.0038922   0.5047286   0.5087946  )
        26           N   tau(  26) = (   0.2448791   0.5124838   0.5038246  )
        27           Al  tau(  27) = (   0.0003266   0.7577781   0.7569086  )
        28           N   tau(  28) = (   0.2466255   0.7567375   0.7577522  )
        29           Al  tau(  29) = (   0.2469415   0.5050402   0.7598121  )
        30           N   tau(  30) = (   0.0062468   0.5020408   0.7574085  )
        31           Al  tau(  31) = (   0.2530732   0.7583293   0.5046780  )
        32           N   tau(  32) = (   0.0009792   0.7597515   0.5077828  )
        33           Al  tau(  33) = (   0.5046624  -0.0006887  -0.0004826  )
        34           N   tau(  34) = (   0.7585348  -0.0013822   0.0004832  )
        35           Al  tau(  35) = (   0.5037691   0.2495797   0.2464895  )
        36           N   tau(  36) = (   0.7561755   0.2446418   0.2447432  )
        37           Al  tau(  37) = (   0.7552927   0.0019250   0.2528287  )
        38           N   tau(  38) = (   0.5023723   0.0023320   0.2519232  )
        39           Al  tau(  39) = (   0.7588393   0.2487324   0.0000360  )
        40           N   tau(  40) = (   0.5045959   0.2444030   0.0009097  )
        41           Al  tau(  41) = (   0.5055269  -0.0023193   0.5046774  )
        42           N   tau(  42) = (   0.7595074  -0.0046193   0.5044762  )
        43           Al  tau(  43) = (   0.5034873   0.2451250   0.7625801  )
        44           N   tau(  44) = (   0.7569566   0.2438647   0.7652498  )
        45           Al  tau(  45) = (   0.7572878   0.0008733   0.7566644  )
        46           N   tau(  46) = (   0.5028000   0.0039541   0.7566327  )
        47           Ti  tau(  47) = (   0.7503924   0.2651047   0.5059884  )
        48           N   tau(  48) = (   0.5040863   0.2404744   0.5023347  )
        49           Ti  tau(  49) = (   0.5109386   0.5086359  -0.0091184  )
        50           N   tau(  50) = (   0.7652443   0.5072240   0.0016040  )
        51           Al  tau(  51) = (   0.5031115   0.7597306   0.2525892  )
        52           N   tau(  52) = (   0.7500164   0.7664884   0.2502031  )
        53           Ti  tau(  53) = (   0.7541422   0.5036833   0.2608975  )
        54           N   tau(  54) = (   0.4962465   0.5012320   0.2494066  )
        55           Al  tau(  55) = (   0.7585829   0.7610780  -0.0008163  )
        56           N   tau(  56) = (   0.5044576   0.7646398   0.0059416  )
        57           Ti  tau(  57) = (   0.5126269   0.5011396   0.5114454  )
        58           N   tau(  58) = (   0.7722904   0.5219945   0.5039555  )
        59           Ti  tau(  59) = (   0.5098393   0.7432787   0.7547776  )
        60           N   tau(  60) = (   0.7645783   0.7671889   0.7587459  )
        61           Ti  tau(  61) = (   0.7456017   0.5055487   0.7502846  )
        62           N   tau(  62) = (   0.4879499   0.4867884   0.7579203  )
        63           Al  tau(  63) = (   0.7574227   0.7636382   0.5056488  )
        64           N   tau(  64) = (   0.5052739   0.7653576   0.4971386  )

     number of k points=     8  Gaussian smearing, width (Ry)=  0.0050
                       cart. coord. in units 2pi/alat
        k(    1) = (   0.0000000   0.0000000   0.0000000), wk =   0.2500000
        k(    2) = (   0.0000000   0.0000000  -0.5000000), wk =   0.2500000
        k(    3) = (   0.0000000  -0.5000000  -0.5000000), wk =   0.2500000
        k(    4) = (  -0.5000000  -0.5000000  -0.5000000), wk =   0.2500000
        k(    5) = (  -0.5000000   0.0000000   0.0000000), wk =   0.2500000
        k(    6) = (   0.0000000  -0.5000000   0.0000000), wk =   0.2500000
        k(    7) = (  -0.5000000   0.0000000   0.5000000), wk =   0.2500000
        k(    8) = (  -0.5000000   0.5000000   0.0000000), wk =   0.2500000

     Dense  grid:   228943 G-vectors     FFT dimensions: (  75,  75,  75)

     Estimated max dynamical RAM per process >     167.94 MB

     Estimated total dynamical RAM >       5.08 GB

     Check: negative core charge=   -0.000013

     Initial potential from superposition of free atoms

     starting charge     327.9330, renormalised to     328.0000
     Starting wfcs are  304 randomized atomic wfcs
     Checking if some PAW data can be deallocated... 

     total cpu time spent up to now is        3.0 secs

     Self-consistent Calculation

     iteration #  1     ecut=    60.00 Ry     beta= 0.20
     Davidson diagonalization with overlap
     ethr =  1.00E-02,  avg # of iterations =  2.1

     total cpu time spent up to now is        8.3 secs

     total energy              =   -3328.40560581 Ry
     estimated scf accuracy    <      16.72807280 Ry

     iteration #  2     ecut=    60.00 Ry     beta= 0.20
     Davidson diagonalization with overlap
     ethr =  5.10E-03,  avg # of iterations =  1.0

     total cpu time spent up to now is       12.5 secs

     total energy              =   -3324.52995622 Ry
     estimated scf accuracy    <       9.31255201 Ry

     iteration #  3     ecut=    60.00 Ry     beta= 0.20
     Davidson diagonalization with overlap
     ethr =  2.84E-03,  avg # of iterations =  2.1

     total cpu time spent up to now is       18.1 secs

     total energy              =   -3326.47483494 Ry
     estimated scf accuracy    <       0.72571062 Ry

     iteration #  4     ecut=    60.00 Ry     beta= 0.20
     Davidson diagonalization with overlap
     ethr =  2.21E-04,  avg # of iterations =  7.1

     total cpu time spent up to now is       24.2 secs

     total energy              =   -3326.45611975 Ry
     estimated scf accuracy    <       0.36021173 Ry

     iteration #  5     ecut=    60.00 Ry     beta= 0.20
     Davidson diagonalization with overlap
     ethr =  1.10E-04,  avg # of iterations =  7.1

     total cpu time spent up to now is       30.4 secs

     total energy              =   -3326.43732654 Ry
     estimated scf accuracy    <       0.17440570 Ry

     iteration #  6     ecut=    60.00 Ry     beta= 0.20
     Davidson diagonalization with overlap
     ethr =  5.32E-05,  avg # of iterations =  7.9

     total cpu time spent up to now is       38.1 secs

     total energy              =   -3326.44789478 Ry
     estimated scf accuracy    <       0.05602580 Ry

     iteration #  7     ecut=    60.00 Ry     beta= 0.20
     Davidson diagonalization with overlap
     ethr =  1.71E-05,  avg # of iterations = 10.0

     total cpu time spent up to now is       44.8 secs

     total energy              =   -3326.44420783 Ry
     estimated scf accuracy    <       0.01612763 Ry

     iteration #  8     ecut=    60.00 Ry     beta= 0.20
     Davidson diagonalization with overlap
     ethr =  4.92E-06,  avg # of iterations =  8.8

     total cpu time spent up to now is       53.1 secs

     total energy              =   -3326.44671037 Ry
     estimated scf accuracy    <       0.00990826 Ry

     iteration #  9     ecut=    60.00 Ry     beta= 0.20
     Davidson diagonalization with overlap
     ethr =  3.02E-06,  avg # of iterations =  2.0

     total cpu time spent up to now is       58.0 secs

     total energy              =   -3326.44768178 Ry
     estimated scf accuracy    <       0.00108190 Ry

     iteration # 10     ecut=    60.00 Ry     beta= 0.20
     Davidson diagonalization with overlap
     ethr =  3.30E-07,  avg # of iterations =  2.5

     total cpu time spent up to now is       63.2 secs

     total energy              =   -3326.44773868 Ry
     estimated scf accuracy    <       0.00039049 Ry

     iteration # 11     ecut=    60.00 Ry     beta= 0.20
     Davidson diagonalization with overlap
     ethr =  1.19E-07,  avg # of iterations =  2.2

     total cpu time spent up to now is       68.0 secs

     total energy              =   -3326.44769974 Ry
     estimated scf accuracy    <       0.00021114 Ry

     iteration # 12     ecut=    60.00 Ry     beta= 0.20
     Davidson diagonalization with overlap
     ethr =  6.44E-08,  avg # of iterations =  2.9

     total cpu time spent up to now is       73.0 secs

     total energy              =   -3326.44771270 Ry
     estimated scf accuracy    <       0.00003322 Ry

     iteration # 13     ecut=    60.00 Ry     beta= 0.20
     Davidson diagonalization with overlap
     ethr =  1.01E-08,  avg # of iterations =  4.6

     total cpu time spent up to now is       79.0 secs

     total energy              =   -3326.44771697 Ry
     estimated scf accuracy    <       0.00000793 Ry

     iteration # 14     ecut=    60.00 Ry     beta= 0.20
     Davidson diagonalization with overlap
     ethr =  2.42E-09,  avg # of iterations =  2.5

     total cpu time spent up to now is       84.6 secs

     total energy              =   -3326.44771675 Ry
     estimated scf accuracy    <       0.00000468 Ry

     iteration # 15     ecut=    60.00 Ry     beta= 0.20
     Davidson diagonalization with overlap
     ethr =  1.43E-09,  avg # of iterations =  1.8

     total cpu time spent up to now is       89.2 secs

     total energy              =   -3326.44771627 Ry
     estimated scf accuracy    <       0.00000188 Ry

     iteration # 16     ecut=    60.00 Ry     beta= 0.20
     Davidson diagonalization with overlap
     ethr =  5.74E-10,  avg # of iterations =  2.2

     total cpu time spent up to now is       94.5 secs

     total energy              =   -3326.44771658 Ry
     estimated scf accuracy    <       0.00000034 Ry

     iteration # 17     ecut=    60.00 Ry     beta= 0.20
     Davidson diagonalization with overlap
     ethr =  1.04E-10,  avg # of iterations =  2.4

     total cpu time spent up to now is       99.4 secs

     total energy              =   -3326.44771657 Ry
     estimated scf accuracy    <       0.00000013 Ry

     iteration # 18     ecut=    60.00 Ry     beta= 0.20
     Davidson diagonalization with overlap
     ethr =  4.03E-11,  avg # of iterations =  3.9

     total cpu time spent up to now is      104.6 secs

     total energy              =   -3326.44771657 Ry
     estimated scf accuracy    <       0.00000005 Ry

     iteration # 19     ecut=    60.00 Ry     beta= 0.20
     Davidson diagonalization with overlap
     ethr =  1.63E-11,  avg # of iterations =  2.1

     total cpu time spent up to now is      109.5 secs

     total energy              =   -3326.44771659 Ry
     estimated scf accuracy    <       0.00000002 Ry

     iteration # 20     ecut=    60.00 Ry     beta= 0.20
     Davidson diagonalization with overlap
     ethr =  5.91E-12,  avg # of iterations =  3.2

     total cpu time spent up to now is      114.4 secs

     End of self-consistent calculation

          k = 0.0000 0.0000 0.0000 ( 28545 PWs)   bands (ev):

   -43.7974 -43.7562 -43.1778 -43.1256 -43.0130 -43.0056 -42.6448 -42.5822
   -20.2510 -20.1789 -20.1371 -20.1013 -20.0747 -20.0429 -19.7164 -19.6614
   -19.6298 -19.5770 -19.5372 -19.5068 -19.4978 -19.4510 -19.4336 -19.4053
   -19.2706 -19.2322 -19.0638 -19.0394 -18.9764 -18.9279 -18.8867 -18.7769
    -4.6847  -3.3125  -3.2986  -3.2206  -3.0256  -2.9415  -2.7804  -2.1174
    -2.0722  -2.0104  -2.0018  -1.9147  -1.8587  -1.8176  -1.7361  -1.7273
    -1.6563  -1.5761  -1.5528  -1.4644  -1.3465  -1.2863  -1.1683  -1.0250
    -0.9540  -0.9049  -0.7777  -0.6884  -0.6308  -0.6132  -0.5740  -0.4999
     4.5235   4.5758   4.6415   4.6556   5.6716   5.6814   5.7590   6.2286
     6.2755   6.3220   6.3469   6.5754   6.6111   6.6630   6.6894   6.7839
     6.8219   6.8934   6.9798   7.0005   7.0978   7.1511   7.1749   7.1926
     7.2115   7.2424   7.2949   7.3265   7.4659   7.5438   7.6664   8.0446
     8.0834   8.1625   8.2095   8.3238   8.3648   8.3966   8.4688   8.5606
     8.5822   8.5926   8.6215   8.6874   8.7642   8.7721   8.7991   8.8578
     8.9493   8.9994   9.0488   9.1664   9.3045   9.3670   9.5036   9.8938
    10.0197  10.0291  10.0536  10.0869  10.1106  10.2653  10.2850  10.3482
    10.3654  10.3898  10.4229  10.4835  10.5301  10.7187  10.7389  10.7842
    10.8697  10.9070  10.9419  10.9671  11.0064  11.0163  11.0328  11.0963
    11.1189  11.1645  11.1931  11.2074  11.2911  11.3001  11.3249  11.3734
    11.3794  11.4098  11.4473  11.4706  11.4971  12.4671  12.5265  12.5392
    13.1072  13.2015  13.3302  14.2615  14.3357  14.4447  14.5805  14.8134
    14.8570  15.2385  15.6044  15.7356  15.9784  16.1308  16.2870  16.3506
    16.4246  16.4267  16.5318  16.6546  16.7875  16.7972  16.8723  16.9382
    16.9888  17.1590  17.2070  17.3076  17.4193  17.4589  17.6125  17.8252
    17.9132  18.0365  18.1537  18.2631  18.3960

          k = 0.0000 0.0000-0.5000 ( 28678 PWs)   bands (ev):

   -43.7974 -43.7562 -43.1777 -43.1259 -43.0127 -43.0058 -42.6448 -42.5822
   -20.2510 -20.1789 -20.1371 -20.1013 -20.0747 -20.0429 -19.7166 -19.6509
   -19.6364 -19.5653 -19.5424 -19.5153 -19.4964 -19.4623 -19.4330 -19.4011
   -19.2658 -19.2346 -19.0629 -19.0395 -18.9766 -18.9279 -18.8871 -18.7765
    -4.3958  -4.1020  -3.0397  -2.9633  -2.9225  -2.7617  -2.6550  -2.6094
    -2.5113  -2.3208  -1.9935  -1.8377  -1.7529  -1.6914  -1.6658  -1.6078
    -1.5000  -1.4622  -1.3787  -1.3316  -1.1807  -1.1067  -1.0674  -1.0416
    -0.9765  -0.9293  -0.8614  -0.8398  -0.7557  -0.7305  -0.6950  -0.6126
     5.0507   5.2112   5.2535   5.2606   5.3032   5.3410   5.4434   5.5573
     5.8602   5.8956   6.1563   6.2311   6.2593   6.3186   6.3811   6.4372
     6.4906   6.5554   6.6495   6.8168   7.1364   7.1976   7.2572   7.4086
     7.4608   7.5621   7.6228   7.6503   7.6767   7.7698   7.8390   7.8833
     7.9049   7.9691   8.0102   8.1226   8.1445   8.2103   8.8290   8.8424
     8.8852   9.0227   9.0432   9.1218   9.1912   9.2981   9.4224   9.4386
     9.4703   9.5667   9.6231   9.6904   9.7553   9.7830   9.8053   9.8421
     9.8708   9.8925   9.9229   9.9407   9.9611   9.9930  10.0634  10.1357
    10.1552  10.2175  10.2622  10.2854  10.3075  10.4006  10.4206  10.4583
    10.5751  10.5987  10.6550  10.7078  10.7787  10.8175  10.8403  10.9279
    10.9961  11.0066  11.0747  11.1350  11.2107  11.2376  11.2708  11.2941
    11.3137  11.3780  11.4127  11.4547  11.8981  11.9674  11.9988  12.0447
    13.3813  14.0038  14.0202  14.0714  14.5435  14.6525  14.7137  14.9843
    15.0227  15.1654  15.2968  15.5257  15.7032  15.8084  16.0252  16.0954
    16.1454  16.4602  16.6785  16.7677  16.8160  16.8594  16.8911  16.9698
    17.0115  17.2833  17.4440  17.4789  17.5397  17.6625  17.7824  17.9363
    18.0608  18.1117  18.2555  18.4433  18.4960

          k = 0.0000-0.5000-0.5000 ( 28596 PWs)   bands (ev):

   -43.7974 -43.7562 -43.1777 -43.1259 -43.0127 -43.0058 -42.6448 -42.5822
   -20.2510 -20.1789 -20.1371 -20.1013 -20.0748 -20.0429 -19.7167 -19.6508
   -19.6364 -19.5652 -19.5423 -19.5152 -19.4964 -19.4624 -19.4329 -19.4011
   -19.2655 -19.2350 -19.0628 -19.0394 -18.9765 -18.9280 -18.8872 -18.7765
    -4.1548  -3.8972  -3.7567  -3.4128  -2.7527  -2.6222  -2.5241  -2.4389
    -2.3847  -2.2794  -2.1539  -2.0613  -1.6700  -1.6226  -1.5870  -1.4783
    -1.3979  -1.3815  -1.3606  -1.2721  -1.2525  -1.1594  -1.0622  -1.0222
    -1.0016  -0.9610  -0.9482  -0.8617  -0.8308  -0.7069  -0.6504  -0.6156
     5.0196   5.1498   5.2268   5.2947   5.4591   5.6334   5.7194   5.8743
     5.9635   6.1100   6.2028   6.2591   6.2938   6.3070   6.3424   6.4253
     6.5222   6.6190   6.6571   6.6733   6.7144   6.7269   6.8593   6.9374
     7.0163   7.1839   7.2023   7.3176   7.3554   7.4700   7.9457   8.0675
     8.2847   8.4793   8.5358   8.6659   8.7710   8.8075   8.8576   8.8678
     8.9404   8.9777   8.9921   9.0617   9.0790   9.1447   9.2129   9.2551
     9.3561   9.3898   9.4494   9.5078   9.5486   9.5938   9.6370   9.6890
     9.7768   9.8723   9.9186   9.9483  10.0466  10.1079  10.1761  10.2246
    10.2618  10.2668  10.3700  10.3806  10.4206  10.4589  10.5305  10.5575
    10.5821  10.6886  10.7686  10.7989  10.8513  10.8814  10.8919  10.9085
    10.9322  10.9704  11.0426  11.0840  11.1556  11.1705  11.2081  11.2544
    11.2937  11.3427  11.4079  11.5687  11.7687  11.9048  11.9999  12.1430
    13.9124  14.0405  14.0811  14.4095  14.5361  14.6755  14.7967  14.9372
    15.0113  15.0259  15.3135  15.5436  15.6970  15.7986  15.9077  16.0003
    16.1099  16.3534  16.6120  16.7031  16.7547  16.7839  16.8428  16.8966
    17.0413  17.4326  17.5232  17.5632  17.6493  17.7034  17.8018  18.0162
    18.0944  18.1437  18.2408  18.6680  18.7874

          k =-0.5000-0.5000-0.5000 ( 28576 PWs)   bands (ev):

   -43.7974 -43.7562 -43.1777 -43.1259 -43.0127 -43.0058 -42.6448 -42.5822
   -20.2510 -20.1789 -20.1371 -20.1013 -20.0747 -20.0421 -19.7167 -19.6508
   -19.6363 -19.5652 -19.5425 -19.5153 -19.4974 -19.4624 -19.4328 -19.4011
   -19.2655 -19.2350 -19.0628 -19.0394 -18.9763 -18.9279 -18.8870 -18.7766
    -3.8910  -3.6665  -3.6098  -3.4570  -3.4072  -3.1733  -3.0744  -2.7881
    -1.7804  -1.7223  -1.6768  -1.6367  -1.5941  -1.4900  -1.4585  -1.4183
    -1.3756  -1.3359  -1.3324  -1.2541  -1.2331  -1.1683  -1.1321  -1.1128
    -1.0669  -1.0582  -1.0271  -0.9958  -0.9341  -0.9065  -0.8394  -0.7234
     5.4679   5.5214   5.5521   5.5934   5.6306   5.6628   5.7062   5.7588
     5.8207   5.8278   5.8632   5.8756   5.8828   5.9442   6.0776   6.0885
     6.2439   6.3628   6.5696   6.6567   6.6752   6.8736   7.0534   7.0962
     7.8117   7.8723   7.9632   8.0206   8.0487   8.1087   8.1202   8.2152
     8.2623   8.2901   8.3189   8.3390   8.4651   8.5061   8.5571   8.5904
     8.6623   8.7107   8.7520   8.8601   8.8801   8.9139   8.9282   8.9658
     9.0316   9.0477   9.1249   9.1974   9.2381   9.4229   9.4875   9.5984
     9.7650   9.8674   9.9041   9.9799  10.0229  10.0693  10.1402  10.1517
    10.2215  10.2396  10.2823  10.3577  10.4176  10.4772  10.5777  10.6031
    10.6538  10.6562  10.7699  10.8210  10.8466  10.9113  10.9975  11.0871
    11.2654  11.3187  11.3254  11.4006  11.4422  11.4902  11.5291  11.5803
    11.6025  11.7205  11.7598  11.7827  11.7995  11.8452  11.8690  11.8838
    13.9948  14.0626  14.1609  14.4389  14.5255  14.6714  14.7030  14.9511
    14.9927  15.0714  15.1632  15.3466  15.4812  15.6168  15.6827  15.8410
    16.0113  16.1754  16.4993  16.7044  16.7709  16.8041  16.8687  17.0194
    17.5199  17.6274  17.7165  17.7298  17.8389  17.9085  17.9749  18.0691
    18.2862  18.3237  18.4140  18.5917  18.7613

          k =-0.5000 0.0000 0.0000 ( 28678 PWs)   bands (ev):

   -43.7974 -43.7562 -43.1779 -43.1256 -43.0130 -43.0056 -42.6448 -42.5822
   -20.2510 -20.1789 -20.1371 -20.1013 -20.0748 -20.0422 -19.7164 -19.6614
   -19.6298 -19.5771 -19.5372 -19.5068 -19.4988 -19.4511 -19.4335 -19.4052
   -19.2706 -19.2322 -19.0638 -19.0394 -18.9762 -18.9278 -18.8866 -18.7770
    -4.3756  -4.1426  -3.0475  -2.9096  -2.8616  -2.7938  -2.6377  -2.5960
    -2.5227  -2.4039  -1.9231  -1.8564  -1.7212  -1.6979  -1.6422  -1.6188
    -1.4925  -1.4705  -1.4605  -1.4114  -1.2827  -1.1224  -1.0815  -1.0604
    -0.9943  -0.9421  -0.7953  -0.7730  -0.7605  -0.6837  -0.6228  -0.5835
     5.0860   5.1299   5.1858   5.2381   5.2808   5.3945   5.6276   5.6821
     5.8793   5.9182   6.1395   6.1603   6.2505   6.3097   6.3283   6.4543
     6.6481   6.7309   6.8540   6.9536   7.0973   7.1267   7.1791   7.2481
     7.3361   7.3733   7.4988   7.5441   7.6071   7.7637   7.7934   7.8339
     7.9044   7.9344   8.0310   8.1342   8.1445   8.3205   8.7677   8.8553
     8.9129   8.9636   8.9846   9.0397   9.0605   9.0787   9.2745   9.4784
     9.5285   9.5747   9.6254   9.6990   9.7464   9.7569   9.7685   9.8006
     9.8541   9.8909   9.9183   9.9588  10.0180  10.0774  10.1328  10.1509
    10.2061  10.2632  10.3090  10.3240  10.3807  10.4649  10.4963  10.5353
    10.5628  10.5697  10.6431  10.6756  10.7147  10.8796  10.9050  10.9544
    10.9878  11.0203  11.0553  11.1900  11.2608  11.2882  11.3045  11.3425
    11.3719  11.4115  11.4370  11.4976  11.9146  11.9647  11.9686  12.0160
    13.2316  13.7077  14.0041  14.1681  14.6030  14.7194  14.9812  15.0387
    15.1780  15.2019  15.3900  15.4790  15.6480  15.7054  16.1723  16.2637
    16.3666  16.4223  16.4806  16.6293  16.7916  16.8384  16.8496  16.9232
    17.1873  17.2671  17.3023  17.4087  17.5794  17.6398  17.7463  17.8389
    18.0322  18.1428  18.1834  18.1890  18.3447

          k = 0.0000-0.5000 0.0000 ( 28678 PWs)   bands (ev):

   -43.7974 -43.7562 -43.1778 -43.1256 -43.0130 -43.0056 -42.6448 -42.5822
   -20.2510 -20.1789 -20.1371 -20.1013 -20.0748 -20.0429 -19.7163 -19.6615
   -19.6299 -19.5771 -19.5372 -19.5067 -19.4978 -19.4510 -19.4336 -19.4052
   -19.2703 -19.2326 -19.0637 -19.0394 -18.9764 -18.9279 -18.8868 -18.7769
    -4.4312  -4.0432  -3.1274  -2.9392  -2.8932  -2.7285  -2.6196  -2.5661
    -2.5390  -2.3481  -1.8920  -1.8225  -1.7763  -1.7237  -1.7210  -1.6587
    -1.6048  -1.5144  -1.4652  -1.3408  -1.2760  -1.2173  -1.1008  -0.9494
    -0.9387  -0.8778  -0.8346  -0.7659  -0.7058  -0.6810  -0.5953  -0.5605
     4.9918   5.0349   5.2367   5.2441   5.4767   5.5040   5.5778   5.7538
     5.8035   5.8258   6.1258   6.2844   6.3523   6.3650   6.4711   6.5367
     6.5563   6.6578   6.8273   6.9984   7.0329   7.0630   7.0769   7.0917
     7.1691   7.2151   7.5499   7.6928   7.7579   7.7994   7.8397   7.8548
     7.8882   8.0393   8.0574   8.0887   8.1378   8.1948   8.7709   8.8267
     8.8456   8.9044   8.9239   8.9728   9.0363   9.1161   9.1528   9.1968
     9.3195   9.5138   9.6096   9.6618   9.7261   9.7445   9.7806   9.8416
     9.8674   9.8894   9.9143   9.9198   9.9814  10.0393  10.0445  10.1515
    10.1682  10.2184  10.2885  10.3050  10.4403  10.4554  10.4974  10.5314
    10.6795  10.7063  10.7619  10.7995  10.8230  10.9411  10.9712  11.0343
    11.1127  11.1436  11.1723  11.1985  11.2069  11.2825  11.3591  11.3976
    11.4182  11.4337  11.4720  11.4846  11.9588  11.9898  12.0203  12.0603
    13.1196  13.7617  13.9015  14.4324  14.5617  14.6272  14.6626  14.9469
    15.0767  15.1267  15.6260  15.7423  15.8763  16.1064  16.2310  16.2634
    16.3349  16.3648  16.5003  16.6235  16.6820  16.7293  16.8176  16.8424
    16.9910  17.1638  17.2320  17.3713  17.4082  17.4513  17.6607  17.8730
    18.0625  18.1371  18.3527  18.4951  18.5742

          k =-0.5000 0.0000 0.5000 ( 28596 PWs)   bands (ev):

   -43.7974 -43.7562 -43.1777 -43.1259 -43.0127 -43.0058 -42.6448 -42.5822
   -20.2510 -20.1789 -20.1371 -20.1013 -20.0748 -20.0421 -19.7166 -19.6509
   -19.6364 -19.5652 -19.5426 -19.5153 -19.4973 -19.4623 -19.4329 -19.4011
   -19.2658 -19.2346 -19.0629 -19.0394 -18.9763 -18.9279 -18.8870 -18.7766
    -4.1243  -3.8580  -3.7558  -3.5971  -2.7255  -2.5697  -2.4924  -2.4072
    -2.3405  -2.2729  -2.1435  -2.0253  -1.7149  -1.6645  -1.4932  -1.4403
    -1.4021  -1.3759  -1.3526  -1.2521  -1.2100  -1.1823  -1.1486  -1.0856
    -1.0406  -0.9664  -0.9174  -0.9105  -0.8340  -0.7699  -0.6705  -0.5679
     5.1587   5.2016   5.2508   5.2759   5.5367   5.5543   5.6199   5.6586
     5.9985   6.0154   6.0649   6.1635   6.2315   6.3490   6.3963   6.4360
     6.4979   6.5118   6.5876   6.6349   6.7306   6.8282   6.8926   6.9743
     7.0666   7.1892   7.2333   7.3481   7.5035   7.7245   7.9329   8.0592
     8.3207   8.3890   8.7256   8.7609   8.8133   8.8711   8.8898   8.9457
     8.9645   8.9727   9.0307   9.0686   9.1618   9.2868   9.3212   9.3646
     9.4161   9.4356   9.4696   9.5236   9.5418   9.6130   9.6794   9.7118
     9.7619   9.7960   9.8562   9.8890   9.9876  10.0604  10.0866  10.1008
    10.1687  10.2245  10.3113  10.3337  10.3574  10.4191  10.5282  10.5743
    10.6026  10.6481  10.7016  10.7398  10.8043  10.8152  10.8601  10.9007
    10.9486  10.9667  10.9758  11.0250  11.1118  11.2030  11.2446  11.2657
    11.2858  11.2986  11.3094  11.3907  11.8996  11.9147  12.0233  12.1156
    13.9898  14.0626  14.1392  14.4512  14.5468  14.6594  14.7582  14.9995
    15.0589  15.1689  15.1844  15.3891  15.5209  15.6996  15.7149  15.8908
    16.1171  16.2788  16.6137  16.7331  16.8325  16.8453  16.9122  17.0088
    17.2638  17.3026  17.5273  17.6129  17.6630  17.7447  17.8508  17.9474
    18.0670  18.2631  18.3014  18.5095  18.6679

          k =-0.5000 0.5000 0.0000 ( 28596 PWs)   bands (ev):

   -43.7974 -43.7562 -43.1778 -43.1256 -43.0130 -43.0056 -42.6448 -42.5822
   -20.2510 -20.1789 -20.1371 -20.1013 -20.0747 -20.0421 -19.7163 -19.6615
   -19.6299 -19.5771 -19.5372 -19.5067 -19.4988 -19.4511 -19.4335 -19.4052
   -19.2703 -19.2326 -19.0637 -19.0394 -18.9761 -18.9279 -18.8867 -18.7770
    -4.1259  -3.9224  -3.8070  -3.3825  -2.6838  -2.5969  -2.5311  -2.4291
    -2.3732  -2.3231  -2.1105  -1.9928  -1.7850  -1.7106  -1.6439  -1.4902
    -1.4597  -1.4180  -1.3295  -1.2629  -1.1900  -1.1562  -1.1294  -1.0821
    -1.0166  -0.9756  -0.9102  -0.8421  -0.7055  -0.6860  -0.6332  -0.5613
     4.9921   5.0438   5.3039   5.3643   5.4442   5.5644   5.8391   5.9871
     6.0933   6.1891   6.2411   6.2989   6.3090   6.3720   6.3981   6.4142
     6.4551   6.5198   6.5906   6.6009   6.6311   6.7165   6.8385   7.0513
     7.0983   7.1263   7.2421   7.3227   7.4549   7.6088   7.6344   7.8452
     8.1348   8.2633   8.4243   8.5780   8.6948   8.7509   8.7739   8.8441
     8.8716   8.9677   9.0317   9.0622   9.1000   9.1665   9.1832   9.2617
     9.3635   9.3665   9.3976   9.4864   9.5207   9.6280   9.6406   9.7473
     9.8521   9.9022   9.9294   9.9586  10.0646  10.1011  10.1854  10.2653
    10.2929  10.3348  10.3641  10.4170  10.4849  10.5387  10.5463  10.6129
    10.6654  10.7245  10.7529  10.8076  10.8405  10.8752  10.9141  10.9759
    11.0010  11.0140  11.0727  11.0980  11.1565  11.2271  11.2698  11.3180
    11.3363  11.3710  11.3872  11.4052  11.7316  11.9259  12.0583  12.0872
    13.7103  13.7736  14.0286  14.5664  14.6025  14.6924  15.0408  15.0609
    15.1011  15.2190  15.3023  15.4234  15.5740  15.7315  16.1352  16.1697
    16.2834  16.3794  16.4125  16.5013  16.6810  16.7646  16.8125  16.8333
    17.2496  17.3652  17.3993  17.5738  17.6465  17.7060  17.8555  17.9037
    18.2058  18.2601  18.3202  18.3612  18.6675

     the Fermi energy is    14.4665 ev

!    total energy              =   -3326.44771658 Ry
     total all-electron energy =    -28826.819263 Ry
     estimated scf accuracy    <          6.8E-09 Ry
     smearing contrib. (-TS)   =      -0.00201208 Ry
     internal energy E=F+TS    =   -3326.44570449 Ry

     The total energy is F=E-TS. E is the sum of the following terms:
     one-electron contribution =    -436.99640751 Ry
     hartree contribution      =     452.13340964 Ry
     xc contribution           =    -404.48366386 Ry
     ewald contribution        =   -1327.30498768 Ry
     one-center paw contrib.   =   -1609.79405509 Ry

     convergence has been achieved in  20 iterations

     Forces acting on atoms (cartesian axes, Ry/au):

     atom    1 type  1   force =     0.01815669    0.01623692    0.01591403
     atom    2 type  2   force =    -0.00040669    0.02201889    0.02109793
     atom    3 type  1   force =     0.01505000    0.00231299   -0.00138753
     atom    4 type  2   force =    -0.00094406   -0.00125286   -0.00055937
     atom    5 type  1   force =     0.00208274    0.01740675   -0.00013065
     atom    6 type  2   force =     0.01774060    0.02056753    0.00082654
     atom    7 type  1   force =    -0.00083456   -0.00035983    0.02169109
     atom    8 type  2   force =     0.02140280   -0.00031759    0.02237542
     atom    9 type  1   force =     0.01997231    0.01657208    0.00281257
     atom   10 type  2   force =     0.00021860    0.02623704   -0.00011926
     atom   11 type  1   force =     0.01690062   -0.00041754   -0.01670775
     atom   12 type  2   force =     0.00040062    0.00014009   -0.02395497
     atom   13 type  1   force =    -0.00087181    0.01850296   -0.01730685
     atom   14 type  2   force =     0.02018953    0.02176679   -0.02265831
     atom   15 type  3   force =     0.00102506    0.00058070   -0.00036446
     atom   16 type  2   force =     0.02392781   -0.00028880   -0.00040305
     atom   17 type  1   force =     0.02432341    0.00047595    0.01900162
     atom   18 type  2   force =    -0.00018174   -0.00066775    0.02155549
     atom   19 type  3   force =     0.02853975   -0.01871901    0.00057873
     atom   20 type  2   force =     0.00305212   -0.02032812   -0.00051904
     atom   21 type  1   force =     0.00143582    0.00070474   -0.00101490
     atom   22 type  2   force =     0.02264050   -0.00337220   -0.00023416
     atom   23 type  1   force =    -0.00169785   -0.02091764    0.01823634
     atom   24 type  2   force =     0.02102916   -0.01989324    0.02578638
     atom   25 type  1   force =     0.02701063    0.00198705    0.00195074
     atom   26 type  2   force =    -0.00173881   -0.00028445   -0.00002929
     atom   27 type  1   force =     0.02313815   -0.01577824   -0.02034717
     atom   28 type  2   force =     0.00175868   -0.02258786   -0.02069093
     atom   29 type  1   force =    -0.00087758   -0.00032385   -0.01812406
     atom   30 type  2   force =     0.02087838    0.00015094   -0.02327099
     atom   31 type  1   force =     0.00026419   -0.02427836   -0.00034890
     atom   32 type  2   force =     0.01996086   -0.01918252   -0.00140671
     atom   33 type  1   force =    -0.00017034    0.02524006    0.01643773
     atom   34 type  2   force =    -0.02181313    0.02538120    0.02224916
     atom   35 type  1   force =     0.00056831    0.00000407   -0.00027985
     atom   36 type  2   force =    -0.01706451    0.00145576    0.00060234
     atom   37 type  1   force =    -0.01615321    0.02836618   -0.00046430
     atom   38 type  2   force =     0.00104792    0.02201921   -0.00089064
     atom   39 type  1   force =    -0.01847819    0.00024203    0.02512173
     atom   40 type  2   force =     0.00008419   -0.00027078    0.02386480
     atom   41 type  1   force =    -0.00051716    0.02817602    0.00009758
     atom   42 type  2   force =    -0.02151936    0.03299648   -0.00085616
     atom   43 type  1   force =     0.00046083   -0.00066145   -0.02168859
     atom   44 type  2   force =    -0.02002494    0.00221318   -0.02799238
     atom   45 type  1   force =    -0.01513242    0.02630482   -0.01579522
     atom   46 type  2   force =     0.00039768    0.01934946   -0.01984301
     atom   47 type  3   force =    -0.02270100    0.00055107   -0.00093171
     atom   48 type  2   force =    -0.00392966   -0.00112484   -0.00002612
     atom   49 type  3   force =     0.00117352   -0.00078852    0.04162134
     atom   50 type  2   force =    -0.02452655    0.00020723    0.02641060
     atom   51 type  1   force =    -0.00235049   -0.01777708    0.00117294
     atom   52 type  2   force =    -0.02443196   -0.02657463    0.00070239
     atom   53 type  3   force =    -0.02194045   -0.00167707    0.00035293
     atom   54 type  2   force =    -0.00369591    0.00010452    0.00515854
     atom   55 type  1   force =    -0.01764000   -0.02240502    0.01526896
     atom   56 type  2   force =     0.00095487   -0.02708499    0.02206054
     atom   57 type  3   force =    -0.00270283   -0.00046298   -0.00122322
     atom   58 type  2   force =    -0.02793168   -0.00023225   -0.00466522
     atom   59 type  3   force =     0.00216735   -0.01840619   -0.02523388
     atom   60 type  2   force =    -0.02867939   -0.03200447   -0.02279814
     atom   61 type  3   force =    -0.01959540    0.00292275   -0.02313959
     atom   62 type  2   force =    -0.00382958   -0.00339842   -0.03938401
     atom   63 type  1   force =    -0.01663988   -0.03039165    0.00465545
     atom   64 type  2   force =     0.00106741   -0.02896531   -0.00281350

     Total force =     0.222576     Total SCF correction =     0.000269


     Computing stress (Cartesian axis) and pressure

          total   stress  (Ry/bohr**3)                   (kbar)     P=      124.85
   0.00085778   0.00001817   0.00001938          126.18        2.67        2.85
   0.00001817   0.00085962  -0.00000910            2.67      126.45       -1.34
   0.00001938  -0.00000910   0.00082866            2.85       -1.34      121.90

 
     init_run     :      2.53s CPU      2.66s WALL (       1 calls)
     electrons    :    109.09s CPU    111.41s WALL (       1 calls)
     forces       :      1.39s CPU      1.44s WALL (       1 calls)
     stress       :     12.52s CPU     12.65s WALL (       1 calls)

     Called by init_run:
     wfcinit      :      2.10s CPU      2.18s WALL (       1 calls)
     potinit      :      0.21s CPU      0.22s WALL (       1 calls)
     hinit0       :      0.12s CPU      0.13s WALL (       1 calls)

     Called by electrons:
     c_bands      :     91.83s CPU     93.38s WALL (      20 calls)
     sum_band     :     11.55s CPU     11.93s WALL (      20 calls)
     v_of_rho     :      0.65s CPU      0.66s WALL (      21 calls)
     newd         :      1.14s CPU      1.38s WALL (      21 calls)
     PAW_pot      :      3.22s CPU      3.30s WALL (      21 calls)
     mix_rho      :      0.89s CPU      0.97s WALL (      20 calls)

     Called by c_bands:
     init_us_2    :      1.56s CPU      1.59s WALL (      86 calls)
     init_us_2:cp :      1.56s CPU      1.58s WALL (      86 calls)
     cegterg      :     77.14s CPU     78.58s WALL (      40 calls)

     Called by *egterg:
     cdiaghg      :      5.78s CPU      5.88s WALL (     178 calls)
     h_psi        :     43.18s CPU     43.78s WALL (     180 calls)
     s_psi        :     10.63s CPU     10.71s WALL (     180 calls)
     g_psi        :      0.17s CPU      0.17s WALL (     138 calls)

     Called by h_psi:
     h_psi:calbec :      9.99s CPU     10.06s WALL (     180 calls)
     vloc_psi     :     22.13s CPU     22.43s WALL (     180 calls)
     add_vuspsi   :     10.71s CPU     10.81s WALL (     180 calls)

     General routines
     calbec       :     15.23s CPU     15.33s WALL (     230 calls)
     fft          :      0.34s CPU      0.35s WALL (     256 calls)
     ffts         :      0.47s CPU      0.48s WALL (     417 calls)
     fftw         :     23.78s CPU     24.09s WALL (   45318 calls)
 
     Parallel routines
 
     PWSCF        :   2m 5.77s CPU   2m 8.88s WALL

 
   This run was terminated on:  16:11:27  11May2026            

=------------------------------------------------------------------------------=
   JOB DONE.
=------------------------------------------------------------------------------=
