
     Program PWSCF v.7.1 starts on 11May2026 at 16: 7:18 

     This program is part of the open-source Quantum ESPRESSO suite
     for quantum simulation of materials; please cite
         "P. Giannozzi et al., J. Phys.:Condens. Matter 21 395502 (2009);
         "P. Giannozzi et al., J. Phys.:Condens. Matter 29 465901 (2017);
         "P. Giannozzi et al., J. Chem. Phys. 152 154105 (2020);
          URL http://www.quantum-espresso.org", 
     in publications or presentations arising from this work. More details at
     http://www.quantum-espresso.org/quote

     Parallel version (MPI & OpenMP), running on      32 processor cores
     Number of MPI processes:                32
     Threads/MPI process:                     1

     MPI processes distributed on     1 nodes
     91287 MiB available memory on the printing compute node when the environment starts
 
     Reading input from TiAlN_x075finalrelaxedresult830725.in

     Current dimensions of program PWSCF are:
     Max number of different atomic species (ntypx) = 10
     Max number of k-points (npk) = 150000
     Max angular momentum in pseudopotentials (lmaxx) =  4
     file Al.pbe-n-kjpaw_psl.1.0.0.UPF: wavefunction(s)  3S 3P renormalized
     file N.pbe-n-kjpaw_psl.1.0.0.UPF: wavefunction(s)  2S renormalized
     file Ti.pbe-spn-kjpaw_psl.1.0.0.UPF: wavefunction(s)  3S 3P 3D renormalized
 
     K-points division:     npool     =       4
     R & G space division:  proc/nbgrp/npool/nimage =       8
     Subspace diagonalization in iterative solution of the eigenvalue problem:
     one sub-group per band group will be used
     scalapack distributed-memory algorithm (size of sub-group:  2*  2 procs)

 
     Parallelization info
     --------------------
     sticks:   dense  smooth     PW     G-vecs:    dense   smooth      PW
     Min         588     588    160                30388    30388    4312
     Max         589     589    161                30393    30393    4315
     Sum        4709    4709   1281               243129   243129   34505
 
     Using Slab Decomposition
 


     bravais-lattice index     =            0
     lattice parameter (alat)  =      15.6984  a.u.
     unit-cell volume          =    3868.7302 (a.u.)^3
     number of atoms/cell      =           64
     number of atomic types    =            3
     number of electrons       =       328.00
     number of Kohn-Sham states=          197
     kinetic-energy cutoff     =      60.0000  Ry
     charge density cutoff     =     240.0000  Ry
     scf convergence threshold =      1.0E-08
     mixing beta               =       0.2000
     number of iterations used =            8  local-TF  mixing
     Exchange-correlation= SLA  PW   PBX  PBC
                           (   1   4   3   4   0   0   0)

     celldm(1)=  15.698427  celldm(2)=   0.000000  celldm(3)=   0.000000
     celldm(4)=   0.000000  celldm(5)=   0.000000  celldm(6)=   0.000000

     crystal axes: (cart. coord. in units of alat)
               a(1) = (   1.000000   0.000000   0.000000 )  
               a(2) = (   0.000000   1.000000   0.000000 )  
               a(3) = (   0.000000   0.000000   1.000000 )  

     reciprocal axes: (cart. coord. in units 2 pi/alat)
               b(1) = (  1.000000  0.000000  0.000000 )  
               b(2) = (  0.000000  1.000000  0.000000 )  
               b(3) = (  0.000000  0.000000  1.000000 )  


     PseudoPot. # 1 for Al read from file:
     ../../../pseudo/Al.pbe-n-kjpaw_psl.1.0.0.UPF
     MD5 check sum: 502b6b27b9c6270cab5dd1084b96fa6d
     Pseudo is Projector augmented-wave + core cor, Zval =  3.0
     Generated using &quot;atomic&quot; code by A. Dal Corso  v.6.3
     Shape of augmentation charge: PSQ
     Using radial grid of 1135 points,  6 beta functions with: 
                l(1) =   0
                l(2) =   0
                l(3) =   1
                l(4) =   1
                l(5) =   2
                l(6) =   2
     Q(r) pseudized with 0 coefficients 


     PseudoPot. # 2 for N  read from file:
     ../../../pseudo/N.pbe-n-kjpaw_psl.1.0.0.UPF
     MD5 check sum: 14c48229446f9f2d411169a3abcbc3fa
     Pseudo is Projector augmented-wave + core cor, Zval =  5.0
     Generated using &quot;atomic&quot; code by A. Dal Corso  v.6.3
     Shape of augmentation charge: PSQ
     Using radial grid of 1085 points,  4 beta functions with: 
                l(1) =   0
                l(2) =   0
                l(3) =   1
                l(4) =   1
     Q(r) pseudized with 0 coefficients 


     PseudoPot. # 3 for Ti read from file:
     ../../../pseudo/Ti.pbe-spn-kjpaw_psl.1.0.0.UPF
     MD5 check sum: 01f69b0d8ba4438b2e03ac6ea4af1c0b
     Pseudo is Projector augmented-wave + core cor, Zval = 12.0
     Generated using &quot;atomic&quot; code by A. Dal Corso  v.6.2.2
     Shape of augmentation charge: PSQ
     Using radial grid of 1177 points,  6 beta functions with: 
                l(1) =   0
                l(2) =   0
                l(3) =   1
                l(4) =   1
                l(5) =   2
                l(6) =   2
     Q(r) pseudized with 0 coefficients 


     atomic species   valence    mass     pseudopotential
        Al             3.00    26.98200     Al( 1.00)
        N              5.00    14.00700     N ( 1.00)
        Ti            12.00    47.86700     Ti( 1.00)

     No symmetry found



   Cartesian axes

     site n.     atom                  positions (alat units)
         1           Al  tau(   1) = (   0.0002385   0.0015636  -0.0009715  )
         2           N   tau(   2) = (   0.2461211  -0.0012808   0.0000975  )
         3           Al  tau(   3) = (   0.0008445   0.2461479   0.2466589  )
         4           N   tau(   4) = (   0.2481998   0.2461741   0.2425957  )
         5           Al  tau(   5) = (   0.2478142  -0.0007663   0.2471204  )
         6           N   tau(   6) = (   0.0014272   0.0049609   0.2474123  )
         7           Al  tau(   7) = (   0.2466614   0.2464680   0.0001018  )
         8           N   tau(   8) = (   0.0003334   0.2464814   0.0000312  )
         9           Al  tau(   9) = (  -0.0003211   0.0028943   0.4964106  )
        10           N   tau(  10) = (   0.2453944  -0.0051676   0.4950800  )
        11           Al  tau(  11) = (  -0.0004083   0.2461094   0.7438324  )
        12           N   tau(  12) = (   0.2457830   0.2447975   0.7477770  )
        13           Al  tau(  13) = (   0.2475834  -0.0024496   0.7430533  )
        14           N   tau(  14) = (   0.0018844   0.0017593   0.7431318  )
        15           Ti  tau(  15) = (   0.2550546   0.2537955   0.4960223  )
        16           N   tau(  16) = (   0.0011069   0.2479172   0.4956434  )
        17           Al  tau(  17) = (  -0.0000803   0.4925807  -0.0035331  )
        18           N   tau(  18) = (   0.2408504   0.4963876   0.0004111  )
        19           Ti  tau(  19) = (  -0.0053511   0.7374309   0.2489778  )
        20           N   tau(  20) = (   0.2513288   0.7435670   0.2463846  )
        21           Al  tau(  21) = (   0.2489840   0.4960314   0.2443890  )
        22           N   tau(  22) = (   0.0082325   0.4879459   0.2467527  )
        23           Al  tau(  23) = (   0.2462739   0.7441756  -0.0002496  )
        24           N   tau(  24) = (  -0.0001266   0.7432646  -0.0029884  )
        25           Al  tau(  25) = (   0.0038185   0.4951745   0.4991635  )
        26           N   tau(  26) = (   0.2402438   0.5027829   0.4942876  )
        27           Al  tau(  27) = (   0.0003204   0.7434340   0.7425809  )
        28           N   tau(  28) = (   0.2419571   0.7424131   0.7434086  )
        29           Al  tau(  29) = (   0.2422671   0.4954802   0.7454294  )
        30           N   tau(  30) = (   0.0061285   0.4925375   0.7430713  )
        31           Al  tau(  31) = (   0.2482827   0.7439747   0.4951248  )
        32           N   tau(  32) = (   0.0009607   0.7453700   0.4981708  )
        33           Al  tau(  33) = (   0.4951096  -0.0006756  -0.0004734  )
        34           N   tau(  34) = (   0.7441763  -0.0013560   0.0004741  )
        35           Al  tau(  35) = (   0.4942331   0.2448554   0.2418236  )
        36           N   tau(  36) = (   0.7418617   0.2400109   0.2401104  )
        37           Al  tau(  37) = (   0.7409956   0.0018885   0.2480428  )
        38           N   tau(  38) = (   0.4928628   0.0022878   0.2471544  )
        39           Al  tau(  39) = (   0.7444751   0.2440241   0.0000353  )
        40           N   tau(  40) = (   0.4950443   0.2397766   0.0008924  )
        41           Al  tau(  41) = (   0.4959576  -0.0022754   0.4951242  )
        42           N   tau(  42) = (   0.7451305  -0.0045319   0.4949268  )
        43           Al  tau(  43) = (   0.4939567   0.2404850   0.7481450  )
        44           N   tau(  44) = (   0.7426279   0.2392485   0.7507642  )
        45           Al  tau(  45) = (   0.7429529   0.0008568   0.7423413  )
        46           N   tau(  46) = (   0.4932824   0.0038792   0.7423102  )
        47           Ti  tau(  47) = (   0.7361881   0.2600865   0.4964105  )
        48           N   tau(  48) = (   0.4945444   0.2359224   0.4928259  )
        49           Ti  tau(  49) = (   0.5012669   0.4990078  -0.0089458  )
        50           N   tau(  50) = (   0.7507588   0.4976227   0.0015736  )
        51           Al  tau(  51) = (   0.4935879   0.7453495   0.2478079  )
        52           N   tau(  52) = (   0.7358192   0.7519793   0.2454669  )
        53           Ti  tau(  53) = (   0.7398668   0.4941490   0.2559589  )
        54           N   tau(  54) = (   0.4868529   0.4917440   0.2446855  )
        55           Al  tau(  55) = (   0.7442235   0.7466714  -0.0008009  )
        56           N   tau(  56) = (   0.4949086   0.7501657   0.0058292  )
        57           Ti  tau(  57) = (   0.5029232   0.4916534   0.5017642  )
        58           N   tau(  58) = (   0.7576716   0.5121135   0.4944160  )
        59           Ti  tau(  59) = (   0.5001885   0.7292090   0.7404902  )
        60           N   tau(  60) = (   0.7501054   0.7526666   0.7443834  )
        61           Ti  tau(  61) = (   0.7314880   0.4959791   0.7360823  )
        62           N   tau(  62) = (   0.4787133   0.4775739   0.7435734  )
        63           Al  tau(  63) = (   0.7430853   0.7491831   0.4960773  )
        64           N   tau(  64) = (   0.4957094   0.7508700   0.4877282  )

     number of k points=     8  Gaussian smearing, width (Ry)=  0.0050
                       cart. coord. in units 2pi/alat
        k(    1) = (   0.0000000   0.0000000   0.0000000), wk =   0.2500000
        k(    2) = (   0.0000000   0.0000000  -0.5000000), wk =   0.2500000
        k(    3) = (   0.0000000  -0.5000000  -0.5000000), wk =   0.2500000
        k(    4) = (  -0.5000000  -0.5000000  -0.5000000), wk =   0.2500000
        k(    5) = (  -0.5000000   0.0000000   0.0000000), wk =   0.2500000
        k(    6) = (   0.0000000  -0.5000000   0.0000000), wk =   0.2500000
        k(    7) = (  -0.5000000   0.0000000   0.5000000), wk =   0.2500000
        k(    8) = (  -0.5000000   0.5000000   0.0000000), wk =   0.2500000

     Dense  grid:   243129 G-vectors     FFT dimensions: (  80,  80,  80)

     Estimated max dynamical RAM per process >     177.74 MB

     Estimated total dynamical RAM >       5.38 GB

     Check: negative core charge=   -0.000013

     Initial potential from superposition of free atoms

     starting charge     327.9330, renormalised to     328.0000
     Starting wfcs are  304 randomized atomic wfcs
     Checking if some PAW data can be deallocated... 

     total cpu time spent up to now is        3.1 secs

     Self-consistent Calculation

     iteration #  1     ecut=    60.00 Ry     beta= 0.20
     Davidson diagonalization with overlap
     ethr =  1.00E-02,  avg # of iterations =  2.0

     total cpu time spent up to now is        8.5 secs

     total energy              =   -3328.38744699 Ry
     estimated scf accuracy    <      16.69027025 Ry

     iteration #  2     ecut=    60.00 Ry     beta= 0.20
     Davidson diagonalization with overlap
     ethr =  5.09E-03,  avg # of iterations =  1.0

     total cpu time spent up to now is       12.8 secs

     total energy              =   -3324.65283864 Ry
     estimated scf accuracy    <       9.22736703 Ry

     iteration #  3     ecut=    60.00 Ry     beta= 0.20
     Davidson diagonalization with overlap
     ethr =  2.81E-03,  avg # of iterations =  2.1

     total cpu time spent up to now is       18.6 secs

     total energy              =   -3326.54890389 Ry
     estimated scf accuracy    <       0.85597215 Ry

     iteration #  4     ecut=    60.00 Ry     beta= 0.20
     Davidson diagonalization with overlap
     ethr =  2.61E-04,  avg # of iterations = 11.8

     total cpu time spent up to now is       25.6 secs

     total energy              =   -3326.53426835 Ry
     estimated scf accuracy    <       0.43564440 Ry

     iteration #  5     ecut=    60.00 Ry     beta= 0.20
     Davidson diagonalization with overlap
     ethr =  1.33E-04,  avg # of iterations =  2.8

     total cpu time spent up to now is       30.7 secs

     total energy              =   -3326.51286963 Ry
     estimated scf accuracy    <       0.21288124 Ry

     iteration #  6     ecut=    60.00 Ry     beta= 0.20
     Davidson diagonalization with overlap
     ethr =  6.49E-05,  avg # of iterations =  5.8

     total cpu time spent up to now is       36.9 secs

     total energy              =   -3326.51837586 Ry
     estimated scf accuracy    <       0.06927431 Ry

     iteration #  7     ecut=    60.00 Ry     beta= 0.20
     Davidson diagonalization with overlap
     ethr =  2.11E-05,  avg # of iterations = 10.1

     total cpu time spent up to now is       43.9 secs

     total energy              =   -3326.51344916 Ry
     estimated scf accuracy    <       0.02507194 Ry

     iteration #  8     ecut=    60.00 Ry     beta= 0.20
     Davidson diagonalization with overlap
     ethr =  7.64E-06,  avg # of iterations = 11.4

     total cpu time spent up to now is       52.8 secs

     total energy              =   -3326.51628112 Ry
     estimated scf accuracy    <       0.00919426 Ry

     iteration #  9     ecut=    60.00 Ry     beta= 0.20
     Davidson diagonalization with overlap
     ethr =  2.80E-06,  avg # of iterations =  5.1

     total cpu time spent up to now is       60.1 secs

     total energy              =   -3326.51733426 Ry
     estimated scf accuracy    <       0.00277525 Ry

     iteration # 10     ecut=    60.00 Ry     beta= 0.20
     Davidson diagonalization with overlap
     ethr =  8.46E-07,  avg # of iterations =  2.2

     total cpu time spent up to now is       65.0 secs

     total energy              =   -3326.51725489 Ry
     estimated scf accuracy    <       0.00110981 Ry

     iteration # 11     ecut=    60.00 Ry     beta= 0.20
     Davidson diagonalization with overlap
     ethr =  3.38E-07,  avg # of iterations =  2.0

     total cpu time spent up to now is       70.1 secs

     total energy              =   -3326.51725801 Ry
     estimated scf accuracy    <       0.00032822 Ry

     iteration # 12     ecut=    60.00 Ry     beta= 0.20
     Davidson diagonalization with overlap
     ethr =  1.00E-07,  avg # of iterations =  4.8

     total cpu time spent up to now is       75.7 secs

     total energy              =   -3326.51727567 Ry
     estimated scf accuracy    <       0.00006477 Ry

     iteration # 13     ecut=    60.00 Ry     beta= 0.20
     Davidson diagonalization with overlap
     ethr =  1.97E-08,  avg # of iterations =  4.1

     total cpu time spent up to now is       81.4 secs

     total energy              =   -3326.51727797 Ry
     estimated scf accuracy    <       0.00001587 Ry

     iteration # 14     ecut=    60.00 Ry     beta= 0.20
     Davidson diagonalization with overlap
     ethr =  4.84E-09,  avg # of iterations =  4.8

     total cpu time spent up to now is       87.6 secs

     total energy              =   -3326.51727695 Ry
     estimated scf accuracy    <       0.00000779 Ry

     iteration # 15     ecut=    60.00 Ry     beta= 0.20
     Davidson diagonalization with overlap
     ethr =  2.37E-09,  avg # of iterations =  2.0

     total cpu time spent up to now is       93.0 secs

     total energy              =   -3326.51727734 Ry
     estimated scf accuracy    <       0.00000238 Ry

     iteration # 16     ecut=    60.00 Ry     beta= 0.20
     Davidson diagonalization with overlap
     ethr =  7.25E-10,  avg # of iterations =  2.4

     total cpu time spent up to now is       98.0 secs

     total energy              =   -3326.51727740 Ry
     estimated scf accuracy    <       0.00000061 Ry

     iteration # 17     ecut=    60.00 Ry     beta= 0.20
     Davidson diagonalization with overlap
     ethr =  1.86E-10,  avg # of iterations =  4.5

     total cpu time spent up to now is      103.9 secs

     total energy              =   -3326.51727737 Ry
     estimated scf accuracy    <       0.00000026 Ry

     iteration # 18     ecut=    60.00 Ry     beta= 0.20
     Davidson diagonalization with overlap
     ethr =  8.06E-11,  avg # of iterations =  2.6

     total cpu time spent up to now is      109.3 secs

     total energy              =   -3326.51727740 Ry
     estimated scf accuracy    <       0.00000010 Ry

     iteration # 19     ecut=    60.00 Ry     beta= 0.20
     Davidson diagonalization with overlap
     ethr =  2.93E-11,  avg # of iterations =  3.9

     total cpu time spent up to now is      115.2 secs

     total energy              =   -3326.51727741 Ry
     estimated scf accuracy    <       0.00000002 Ry

     iteration # 20     ecut=    60.00 Ry     beta= 0.20
     Davidson diagonalization with overlap
     ethr =  6.63E-12,  avg # of iterations =  4.2

     total cpu time spent up to now is      120.6 secs

     total energy              =   -3326.51727741 Ry
     estimated scf accuracy    <       0.00000001 Ry

     iteration # 21     ecut=    60.00 Ry     beta= 0.20
     Davidson diagonalization with overlap
     ethr =  3.74E-12,  avg # of iterations =  2.0

     total cpu time spent up to now is      125.3 secs

     End of self-consistent calculation

          k = 0.0000 0.0000 0.0000 ( 30551 PWs)   bands (ev):

   -44.7883 -44.6492 -44.2867 -44.0484 -44.0406 -43.9336 -43.6610 -43.4811
   -21.2220 -21.0679 -21.0456 -21.0315 -20.9596 -20.9431 -20.7198 -20.6616
   -20.6378 -20.5216 -20.5033 -20.4522 -20.4210 -20.4001 -20.3699 -20.3188
   -20.2856 -20.1689 -20.0314 -20.0143 -19.9313 -19.8546 -19.7932 -19.6997
    -5.0167  -3.8207  -3.7092  -3.5964  -3.4756  -3.3955  -3.3099  -2.7079
    -2.6172  -2.5889  -2.5733  -2.4505  -2.4417  -2.3579  -2.3133  -2.2570
    -2.2476  -2.1814  -2.1723  -2.0643  -2.0020  -1.9966  -1.8904  -1.6939
    -1.6499  -1.5849  -1.4297  -1.3543  -1.3477  -1.2837  -1.2387  -1.1482
     3.9728   4.0215   4.0979   4.1221   5.2018   5.2326   5.2639   5.5711
     5.6161   5.6681   5.7078   5.9097   5.9575   6.0014   6.0459   6.1767
     6.2095   6.3394   6.3648   6.4917   6.5138   6.5319   6.5910   6.6337
     6.6412   6.6861   6.7347   6.7578   6.8290   6.8708   6.9426   7.2985
     7.3400   7.4149   7.4881   7.6346   7.6584   7.7075   7.7995   7.8959
     7.9252   7.9397   7.9999   8.0322   8.0427   8.1055   8.1436   8.1637
     8.2008   8.2779   8.2895   8.4535   8.5470   8.5868   8.8088   9.2121
     9.2597   9.3250   9.3662   9.3884   9.3923   9.4568   9.4672   9.5591
     9.5699   9.6027   9.6470   9.7043   9.7739   9.9484   9.9687  10.0104
    10.1072  10.1203  10.1520  10.2022  10.2415  10.2838  10.2947  10.3304
    10.3324  10.3703  10.4178  10.4437  10.4624  10.5070  10.5149  10.5667
    10.6149  10.6255  10.6564  10.7395  10.7627  11.6234  11.6452  11.6529
    12.2642  12.4085  12.5183  13.4546  13.4895  13.6297  13.7320  13.9288
    13.9808  14.3164  14.5574  14.7509  14.9742  15.0742  15.2285  15.2547
    15.3623  15.3772  15.4398  15.5320  15.6955  15.8097  15.8747  15.9516
    15.9615  15.9880  16.0997  16.1407  16.3814  16.3956  16.4382  16.5821
    16.6499  16.7868  16.8177  16.9577  17.0662

          k = 0.0000 0.0000-0.5000 ( 30334 PWs)   bands (ev):

   -44.7883 -44.6492 -44.2866 -44.0486 -44.0404 -43.9336 -43.6610 -43.4811
   -21.2220 -21.0679 -21.0456 -21.0315 -20.9596 -20.9431 -20.7182 -20.6616
   -20.6381 -20.5183 -20.5049 -20.4545 -20.4196 -20.3996 -20.3733 -20.3255
   -20.2774 -20.1704 -20.0314 -20.0136 -19.9313 -19.8545 -19.7935 -19.6994
    -4.6857  -4.5534  -3.5048  -3.4283  -3.3619  -3.2463  -3.2003  -3.0235
    -2.9968  -2.9428  -2.4919  -2.4120  -2.3985  -2.2906  -2.2176  -2.1870
    -2.1603  -2.1187  -2.0742  -2.0145  -1.8320  -1.7595  -1.6834  -1.6769
    -1.6293  -1.5801  -1.5318  -1.5010  -1.4669  -1.3747  -1.3195  -1.2991
     4.4906   4.5816   4.6159   4.6582   4.7459   4.8341   4.9473   4.9687
     5.4304   5.4594   5.5877   5.6511   5.7048   5.7378   5.7721   5.8325
     5.8524   5.9262   6.0625   6.1922   6.5330   6.6689   6.7197   6.7772
     6.8043   6.8607   6.8981   6.9823   6.9949   7.0564   7.1398   7.1940
     7.2363   7.2724   7.3452   7.3933   7.4530   7.4927   8.0882   8.1081
     8.1591   8.3015   8.4297   8.4474   8.5318   8.5797   8.6992   8.7505
     8.7821   8.8275   8.9009   8.9839   9.0060   9.0676   9.0860   9.0977
     9.1459   9.1490   9.1964   9.2158   9.2454   9.2682   9.3429   9.3501
     9.4238   9.4788   9.5291   9.5803   9.6096   9.6225   9.6805   9.7218
     9.7882   9.8160   9.8907   9.9618   9.9795  10.0147  10.0395  10.1856
    10.1962  10.2375  10.2658  10.3720  10.4497  10.4582  10.4726  10.5130
    10.5596  10.5960  10.6561  10.6773  11.0566  11.1075  11.1829  11.2109
    12.5516  13.1244  13.1569  13.2301  13.6825  13.7231  13.8435  14.0610
    14.1014  14.2483  14.3030  14.5014  14.7230  14.8281  15.0170  15.1065
    15.1407  15.3647  15.6231  15.7740  15.7903  15.8340  15.9013  15.9435
    16.0379  16.1803  16.2989  16.3331  16.4627  16.5123  16.6092  16.7073
    16.8188  16.8993  17.0524  17.0978  17.1761

          k = 0.0000-0.5000-0.5000 ( 30432 PWs)   bands (ev):

   -44.7883 -44.6492 -44.2867 -44.0487 -44.0404 -43.9336 -43.6610 -43.4811
   -21.2220 -21.0679 -21.0456 -21.0315 -20.9596 -20.9431 -20.7182 -20.6616
   -20.6382 -20.5184 -20.5048 -20.4544 -20.4196 -20.3996 -20.3734 -20.3255
   -20.2773 -20.1705 -20.0314 -20.0136 -19.9313 -19.8546 -19.7935 -19.6994
    -4.4237  -4.2525  -4.1488  -4.1187  -3.1221  -3.0148  -2.9998  -2.9210
    -2.8922  -2.8324  -2.7617  -2.7370  -2.3126  -2.2410  -2.1625  -2.1303
    -2.0854  -1.9826  -1.9648  -1.9076  -1.8483  -1.7681  -1.7499  -1.6934
    -1.6837  -1.5785  -1.5639  -1.5316  -1.4954  -1.4589  -1.2994  -1.2615
     4.5221   4.5724   4.6454   4.7563   4.8778   5.0463   5.1900   5.3198
     5.4989   5.5253   5.6299   5.6443   5.6736   5.7267   5.7774   5.8347
     5.8550   5.9193   6.0421   6.0781   6.0974   6.2299   6.2621   6.3354
     6.3771   6.4174   6.5254   6.6188   6.7224   6.7910   7.3395   7.3905
     7.5851   7.8268   7.8834   7.9961   8.0857   8.0945   8.1181   8.1901
     8.2131   8.2554   8.3370   8.3920   8.4192   8.4658   8.5173   8.5888
     8.5967   8.6376   8.7411   8.7933   8.8344   8.8508   8.9004   8.9606
     9.0406   9.1086   9.1880   9.2308   9.3434   9.3714   9.4308   9.4554
     9.4601   9.5197   9.6136   9.6397   9.6547   9.7389   9.8186   9.8487
     9.8681   9.9389  10.0066  10.0362  10.1086  10.1197  10.1418  10.1648
    10.1944  10.2088  10.2699  10.3100  10.3609  10.3880  10.4045  10.4393
    10.4938  10.5164  10.5386  10.7603  11.0066  11.0744  11.1854  11.3075
    13.0108  13.1369  13.1696  13.5356  13.6351  13.7463  13.9032  14.0124
    14.0825  14.1153  14.3226  14.5358  14.6933  14.8002  14.9001  15.0068
    15.0938  15.2989  15.6239  15.7040  15.7185  15.7915  15.8718  15.9308
    15.9811  16.2858  16.3464  16.5260  16.5798  16.6163  16.6577  16.7821
    16.8805  16.9369  17.1639  17.3844  17.6352

          k =-0.5000-0.5000-0.5000 ( 30280 PWs)   bands (ev):

   -44.7882 -44.6492 -44.2866 -44.0486 -44.0403 -43.9335 -43.6610 -43.4810
   -21.2220 -21.0679 -21.0456 -21.0315 -20.9596 -20.9427 -20.7182 -20.6616
   -20.6382 -20.5184 -20.5048 -20.4546 -20.4196 -20.4000 -20.3735 -20.3255
   -20.2773 -20.1704 -20.0314 -20.0136 -19.9313 -19.8544 -19.7934 -19.6995
    -4.1612  -4.0513  -3.9662  -3.9135  -3.8790  -3.7565  -3.5504  -3.3994
    -2.3802  -2.3238  -2.2854  -2.2260  -2.1504  -2.1199  -2.1036  -2.0301
    -1.9763  -1.9205  -1.8842  -1.8548  -1.8459  -1.8193  -1.7983  -1.7747
    -1.7108  -1.6684  -1.6366  -1.6205  -1.5950  -1.5735  -1.5120  -1.4905
     4.8860   4.9553   5.0123   5.0452   5.0692   5.1037   5.1535   5.1846
     5.2058   5.2504   5.2800   5.3014   5.3339   5.3639   5.4353   5.5368
     5.6256   5.7581   5.9423   6.0740   6.1166   6.1860   6.3784   6.4401
     7.1678   7.2194   7.2876   7.3523   7.3813   7.4309   7.4981   7.5094
     7.5575   7.5889   7.6575   7.7270   7.7925   7.8387   7.8979   7.9256
     7.9666   8.0177   8.0931   8.1533   8.1906   8.2087   8.2166   8.2817
     8.2954   8.3501   8.4317   8.4598   8.5146   8.6804   8.7530   8.8384
     9.1057   9.1295   9.2296   9.2694   9.2941   9.3563   9.4026   9.4224
     9.4806   9.5162   9.5947   9.6261   9.6780   9.7502   9.7751   9.8108
     9.8868   9.9072   9.9719  10.0417  10.0684  10.1315  10.2127  10.2575
    10.5141  10.5228  10.5524  10.6034  10.6914  10.7166  10.7304  10.7880
    10.8591  10.9313  10.9437  10.9838  10.9995  11.0117  11.0426  11.0567
    13.0742  13.1615  13.2131  13.5645  13.6213  13.6995  13.7877  14.0034
    14.0501  14.1247  14.2437  14.3700  14.5328  14.6299  14.6867  14.8762
    15.0020  15.1157  15.5676  15.6601  15.7795  15.8330  15.8830  16.0340
    16.3869  16.4930  16.6094  16.6685  16.7067  16.8042  16.8863  16.9184
    17.0191  17.1533  17.4169  17.4579  17.5486

          k =-0.5000 0.0000 0.0000 ( 30334 PWs)   bands (ev):

   -44.7883 -44.6492 -44.2867 -44.0484 -44.0406 -43.9336 -43.6610 -43.4810
   -21.2220 -21.0679 -21.0456 -21.0315 -20.9596 -20.9427 -20.7198 -20.6616
   -20.6378 -20.5216 -20.5033 -20.4524 -20.4210 -20.4005 -20.3700 -20.3188
   -20.2856 -20.1689 -20.0314 -20.0144 -19.9313 -19.8544 -19.7931 -19.6997
    -4.7361  -4.4906  -3.5204  -3.4149  -3.3147  -3.2543  -3.1917  -3.0549
    -2.9968  -2.9467  -2.5520  -2.3846  -2.3563  -2.2892  -2.2723  -2.2267
    -2.1744  -2.1433  -2.0353  -2.0204  -1.9397  -1.7352  -1.7120  -1.6872
    -1.6148  -1.5730  -1.4647  -1.4355  -1.4082  -1.3774  -1.3299  -1.2975
     4.5191   4.5605   4.5890   4.6485   4.7440   4.8098   5.0525   5.1650
     5.3849   5.3966   5.5307   5.6712   5.7031   5.7100   5.7910   5.8913
     6.0511   6.1140   6.1881   6.2365   6.3864   6.4957   6.5646   6.6515
     6.7080   6.7704   6.8279   6.9130   6.9652   7.0369   7.0567   7.1056
     7.2179   7.2896   7.3525   7.4427   7.4531   7.6466   8.1179   8.1872
     8.2162   8.2270   8.3442   8.3649   8.4001   8.4370   8.5735   8.6091
     8.8291   8.8658   8.9067   8.9774   9.0276   9.0538   9.0640   9.1198
     9.1685   9.2026   9.2119   9.2502   9.3083   9.3730   9.4090   9.4172
     9.4379   9.4862   9.5646   9.5817   9.6508   9.6916   9.7210   9.7451
     9.7708   9.8010   9.8428   9.9001   9.9753  10.1068  10.1113  10.1494
    10.1775  10.2337  10.2941  10.4072  10.4515  10.5245  10.5462  10.5693
    10.5904  10.5972  10.6363  10.6770  11.1100  11.1112  11.1527  11.1736
    12.4378  12.7962  13.0927  13.3891  13.7144  13.8393  14.0697  14.0944
    14.2244  14.3000  14.4476  14.5654  14.6121  14.7419  15.1596  15.1819
    15.2817  15.3345  15.4477  15.6697  15.6939  15.8269  15.8867  15.9355
    16.0700  16.1631  16.2421  16.2933  16.4592  16.5142  16.6216  16.6845
    16.8066  16.9095  16.9367  17.0201  17.1104

          k = 0.0000-0.5000 0.0000 ( 30334 PWs)   bands (ev):

   -44.7883 -44.6492 -44.2867 -44.0484 -44.0406 -43.9336 -43.6610 -43.4811
   -21.2220 -21.0679 -21.0456 -21.0315 -20.9596 -20.9431 -20.7198 -20.6616
   -20.6378 -20.5217 -20.5032 -20.4521 -20.4210 -20.4002 -20.3698 -20.3187
   -20.2856 -20.1690 -20.0314 -20.0142 -19.9313 -19.8546 -19.7932 -19.6996
    -4.7063  -4.5384  -3.4521  -3.3442  -3.3072  -3.2451  -3.2331  -3.1488
    -3.0993  -2.8971  -2.4587  -2.3821  -2.3136  -2.2830  -2.2607  -2.2298
    -2.2064  -2.1952  -2.1280  -1.9896  -1.9144  -1.8593  -1.7288  -1.6917
    -1.5661  -1.5489  -1.5202  -1.4361  -1.4128  -1.3615  -1.3135  -1.1552
     4.4279   4.4386   4.6877   4.6917   4.8372   4.8799   5.0090   5.2349
     5.3353   5.3820   5.5732   5.6852   5.7225   5.7932   5.8588   5.9145
     5.9392   6.0476   6.1582   6.3586   6.4137   6.4459   6.5252   6.5654
     6.6479   6.7053   6.7975   6.9682   7.0050   7.0649   7.1096   7.1366
     7.2496   7.3428   7.4072   7.4375   7.4711   7.5185   8.0301   8.0837
     8.0991   8.1352   8.2756   8.3435   8.4251   8.4386   8.4936   8.5393
     8.6226   8.8460   8.8802   8.9596   8.9993   9.0265   9.0565   9.0749
     9.1365   9.1617   9.1969   9.2339   9.2956   9.3210   9.3552   9.3812
     9.4256   9.4975   9.5163   9.5675   9.6192   9.6871   9.7474   9.8110
     9.9062   9.9326   9.9413   9.9713  10.0271  10.0633  10.1057  10.2838
    10.3214  10.3467  10.3972  10.4086  10.4553  10.5195  10.6087  10.6327
    10.6560  10.6817  10.7371  10.7499  11.0894  11.1180  11.1819  11.2022
    12.2730  12.8963  13.0135  13.5951  13.7079  13.7271  13.8106  14.0559
    14.1606  14.2132  14.5777  14.7553  14.8647  15.0255  15.1509  15.1940
    15.2755  15.3529  15.4309  15.5912  15.6591  15.7329  15.8450  15.8629
    15.9557  15.9920  16.0875  16.3473  16.3745  16.4115  16.5393  16.6454
    16.8245  16.9976  17.0960  17.2495  17.2872

          k =-0.5000 0.0000 0.5000 ( 30432 PWs)   bands (ev):

   -44.7883 -44.6492 -44.2867 -44.0487 -44.0404 -43.9336 -43.6610 -43.4811
   -21.2220 -21.0679 -21.0456 -21.0315 -20.9596 -20.9427 -20.7182 -20.6616
   -20.6381 -20.5183 -20.5049 -20.4546 -20.4196 -20.4001 -20.3734 -20.3255
   -20.2774 -20.1704 -20.0314 -20.0137 -19.9313 -19.8544 -19.7934 -19.6995
    -4.4186  -4.3051  -4.1761  -4.0125  -3.1465  -3.0617  -3.0128  -2.9683
    -2.9375  -2.8440  -2.7043  -2.6655  -2.2335  -2.2192  -2.1364  -2.0956
    -2.0699  -2.0401  -1.9035  -1.8840  -1.8606  -1.8059  -1.7769  -1.6745
    -1.6494  -1.6145  -1.5870  -1.5486  -1.5177  -1.4390  -1.3884  -1.2678
     4.6014   4.6487   4.6828   4.7067   4.9680   5.0135   5.1034   5.1298
     5.3843   5.4748   5.5358   5.5614   5.6495   5.7478   5.7580   5.8260
     5.8419   5.8987   5.9355   6.0668   6.1586   6.1811   6.2655   6.3440
     6.4511   6.5751   6.6323   6.7332   6.8575   7.0137   7.1857   7.3441
     7.6623   7.7335   8.0193   8.0657   8.1185   8.1591   8.2122   8.2495
     8.2823   8.2950   8.3316   8.3747   8.4592   8.5899   8.5978   8.6671
     8.6799   8.6999   8.7604   8.7656   8.8526   8.9265   8.9866   9.0111
     9.0336   9.0593   9.0935   9.1306   9.2856   9.3166   9.3701   9.3932
     9.4675   9.4807   9.5180   9.5661   9.5998   9.6143   9.7390   9.7703
     9.8696   9.9018   9.9317   9.9619  10.0393  10.0565  10.1031  10.1371
    10.1773  10.1870  10.2231  10.2568  10.3370  10.4206  10.4544  10.4609
    10.4982  10.5326  10.5735  10.6190  11.0833  11.1067  11.2148  11.2915
    13.0838  13.1627  13.2108  13.5990  13.6724  13.7057  13.8620  14.0241
    14.1259  14.2267  14.2575  14.4299  14.5886  14.6757  14.7597  14.9167
    15.1296  15.1881  15.6333  15.6985  15.8406  15.8804  15.9134  16.0188
    16.1183  16.1692  16.4438  16.5158  16.5452  16.5986  16.6772  16.7952
    16.8203  17.0362  17.3096  17.3186  17.4163

          k =-0.5000 0.5000 0.0000 ( 30432 PWs)   bands (ev):

   -44.7883 -44.6492 -44.2867 -44.0484 -44.0406 -43.9336 -43.6610 -43.4811
   -21.2220 -21.0679 -21.0456 -21.0315 -20.9596 -20.9427 -20.7198 -20.6617
   -20.6378 -20.5217 -20.5033 -20.4524 -20.4210 -20.4005 -20.3700 -20.3187
   -20.2856 -20.1690 -20.0314 -20.0143 -19.9313 -19.8544 -19.7931 -19.6997
    -4.4282  -4.3206  -4.2207  -3.8967  -3.1577  -3.0391  -3.0004  -2.9569
    -2.9328  -2.8434  -2.7176  -2.6402  -2.4159  -2.3394  -2.2373  -2.0858
    -2.0345  -2.0186  -1.9503  -1.9254  -1.8048  -1.7747  -1.7378  -1.7284
    -1.6408  -1.6119  -1.5777  -1.5032  -1.4609  -1.3505  -1.3260  -1.2501
     4.4721   4.4979   4.7532   4.7979   4.9012   4.9146   5.3168   5.4373
     5.5774   5.6381   5.6682   5.6831   5.7207   5.7669   5.8157   5.8397
     5.8772   5.8873   5.9106   5.9769   6.0161   6.0986   6.2142   6.3738
     6.4150   6.4817   6.6175   6.6524   6.8006   6.8394   6.9294   7.2201
     7.5294   7.5421   7.8041   7.9460   8.0684   8.0961   8.1274   8.1538
     8.2427   8.3138   8.3485   8.3889   8.4233   8.4519   8.4792   8.5499
     8.6506   8.6636   8.6872   8.7226   8.8294   8.8513   8.9358   8.9630
     9.0974   9.1184   9.1782   9.1933   9.3262   9.3691   9.4393   9.5006
     9.5541   9.5866   9.6228   9.7249   9.7705   9.7863   9.8305   9.8739
     9.8806   9.9744   9.9868  10.0600  10.0926  10.1207  10.1631  10.1970
    10.2200  10.2282  10.2900  10.3109  10.3619  10.4247  10.4673  10.4985
    10.5095  10.5709  10.5848  10.6182  10.9290  11.1253  11.2219  11.2511
    12.7979  12.9087  13.1026  13.6924  13.7263  13.7861  14.1020  14.1426
    14.1985  14.2610  14.3450  14.5002  14.5563  14.7534  15.0676  15.1700
    15.1924  15.3000  15.3637  15.5345  15.6805  15.7395  15.8069  15.8619
    16.2757  16.2954  16.3753  16.4198  16.4363  16.5231  16.7281  16.8303
    16.9927  17.0619  17.2101  17.2974  17.3847

     the Fermi energy is    13.6042 ev

!    total energy              =   -3326.51727740 Ry
     total all-electron energy =    -28826.888824 Ry
     estimated scf accuracy    <          5.4E-09 Ry
     smearing contrib. (-TS)   =      -0.00251781 Ry
     internal energy E=F+TS    =   -3326.51475959 Ry

     The total energy is F=E-TS. E is the sum of the following terms:
     one-electron contribution =    -507.05233088 Ry
     hartree contribution      =     476.47767177 Ry
     xc contribution           =    -401.69728495 Ry
     ewald contribution        =   -1284.70475137 Ry
     one-center paw contrib.   =   -1609.53806417 Ry

     convergence has been achieved in  21 iterations

     Forces acting on atoms (cartesian axes, Ry/au):

     atom    1 type  1   force =    -0.01148592   -0.00908828   -0.00815178
     atom    2 type  2   force =    -0.00038821   -0.01676248   -0.01449745
     atom    3 type  1   force =    -0.00927608   -0.00013042    0.00144998
     atom    4 type  2   force =     0.00136114    0.00151128    0.00055547
     atom    5 type  1   force =    -0.00079679   -0.01126881    0.00013719
     atom    6 type  2   force =    -0.01198085   -0.01359461    0.00033050
     atom    7 type  1   force =    -0.00038217   -0.00085230   -0.01441776
     atom    8 type  2   force =    -0.01579166    0.00055346   -0.01550656
     atom    9 type  1   force =    -0.01254531   -0.00928440   -0.00285326
     atom   10 type  2   force =     0.00078485   -0.01939290   -0.00022837
     atom   11 type  1   force =    -0.01079886    0.00132058    0.01033713
     atom   12 type  2   force =     0.00020889   -0.00057957    0.01663425
     atom   13 type  1   force =     0.00055828   -0.01283496    0.01041218
     atom   14 type  2   force =    -0.01380490   -0.01439736    0.01482648
     atom   15 type  3   force =    -0.00094296    0.00116618    0.00032175
     atom   16 type  2   force =    -0.01854765    0.00131896    0.00007396
     atom   17 type  1   force =    -0.01539147   -0.00065254   -0.01192504
     atom   18 type  2   force =    -0.00084834   -0.00043673   -0.01599580
     atom   19 type  3   force =    -0.01869389    0.01366345    0.00107122
     atom   20 type  2   force =    -0.00224044    0.01325072    0.00034068
     atom   21 type  1   force =    -0.00061086   -0.00097559    0.00067987
     atom   22 type  2   force =    -0.01703434    0.00407607    0.00088406
     atom   23 type  1   force =     0.00103106    0.01178018   -0.01157599
     atom   24 type  2   force =    -0.01473644    0.01318963   -0.01742832
     atom   25 type  1   force =    -0.01903671   -0.00111822   -0.00046338
     atom   26 type  2   force =    -0.00053166    0.00011512   -0.00029663
     atom   27 type  1   force =    -0.01459822    0.00867293    0.01203426
     atom   28 type  2   force =    -0.00174632    0.01492231    0.01408198
     atom   29 type  1   force =     0.00059316   -0.00075592    0.01165090
     atom   30 type  2   force =    -0.01419510   -0.00000226    0.01611356
     atom   31 type  1   force =     0.00112271    0.01486484    0.00032015
     atom   32 type  2   force =    -0.01440812    0.01255496    0.00094712
     atom   33 type  1   force =     0.00004206   -0.01724821   -0.00956310
     atom   34 type  2   force =     0.01465768   -0.01765251   -0.01465525
     atom   35 type  1   force =    -0.00004212   -0.00091997   -0.00007662
     atom   36 type  2   force =     0.01190236    0.00012214   -0.00091307
     atom   37 type  1   force =     0.00982376   -0.01813734    0.00097118
     atom   38 type  2   force =    -0.00045844   -0.01589577    0.00110025
     atom   39 type  1   force =     0.01097595   -0.00027879   -0.01646611
     atom   40 type  2   force =    -0.00061343   -0.00076531   -0.01715506
     atom   41 type  1   force =     0.00076870   -0.01979610   -0.00065949
     atom   42 type  2   force =     0.01461176   -0.02484292    0.00044884
     atom   43 type  1   force =    -0.00024305    0.00042790    0.01386251
     atom   44 type  2   force =     0.01319878   -0.00258575    0.01988508
     atom   45 type  1   force =     0.00810598   -0.01704557    0.00879985
     atom   46 type  2   force =    -0.00052135   -0.01320896    0.01317209
     atom   47 type  3   force =     0.01707295   -0.00037284    0.00108954
     atom   48 type  2   force =     0.00407464    0.00125606    0.00000657
     atom   49 type  3   force =    -0.00129270   -0.00170703   -0.02889987
     atom   50 type  2   force =     0.01800150    0.00052038   -0.01991714
     atom   51 type  1   force =     0.00267176    0.01097098   -0.00031865
     atom   52 type  2   force =     0.01849230    0.01983508   -0.00041695
     atom   53 type  3   force =     0.01459016    0.00167969   -0.00049098
     atom   54 type  2   force =     0.00242990    0.00027274   -0.00550145
     atom   55 type  1   force =     0.00997935    0.01517295   -0.00869833
     atom   56 type  2   force =    -0.00039788    0.01715765   -0.01593581
     atom   57 type  3   force =     0.00193295    0.00176720   -0.00127088
     atom   58 type  2   force =     0.02078833    0.00131181    0.00482268
     atom   59 type  3   force =    -0.00223759    0.01462269    0.01667433
     atom   60 type  2   force =     0.01938060    0.02317240    0.01523737
     atom   61 type  3   force =     0.01546804   -0.00326021    0.01575051
     atom   62 type  2   force =     0.00254011    0.00219946    0.03035318
     atom   63 type  1   force =     0.00991753    0.02111542   -0.00335147
     atom   64 type  2   force =    -0.00046741    0.02127942    0.00225389

     Total force =     0.152767     Total SCF correction =     0.000241


     Computing stress (Cartesian axis) and pressure

          total   stress  (Ry/bohr**3)                   (kbar)     P=      -29.87
  -0.00018937   0.00001431   0.00000950          -27.86        2.10        1.40
   0.00001431  -0.00017800  -0.00001386            2.10      -26.18       -2.04
   0.00000950  -0.00001386  -0.00024183            1.40       -2.04      -35.57

 
     init_run     :      2.60s CPU      2.74s WALL (       1 calls)
     electrons    :    119.53s CPU    122.28s WALL (       1 calls)
     forces       :      1.48s CPU      1.54s WALL (       1 calls)
     stress       :     13.22s CPU     13.35s WALL (       1 calls)

     Called by init_run:
     wfcinit      :      2.15s CPU      2.24s WALL (       1 calls)
     potinit      :      0.21s CPU      0.22s WALL (       1 calls)
     hinit0       :      0.12s CPU      0.13s WALL (       1 calls)

     Called by electrons:
     c_bands      :    100.64s CPU    102.44s WALL (      21 calls)
     sum_band     :     12.71s CPU     13.19s WALL (      21 calls)
     v_of_rho     :      0.77s CPU      0.79s WALL (      22 calls)
     newd         :      1.24s CPU      1.53s WALL (      22 calls)
     PAW_pot      :      3.39s CPU      3.46s WALL (      22 calls)
     mix_rho      :      0.97s CPU      1.05s WALL (      21 calls)

     Called by c_bands:
     init_us_2    :      1.73s CPU      1.75s WALL (      90 calls)
     init_us_2:cp :      1.73s CPU      1.75s WALL (      90 calls)
     cegterg      :     83.68s CPU     85.37s WALL (      42 calls)

     Called by *egterg:
     cdiaghg      :      6.01s CPU      6.11s WALL (     196 calls)
     h_psi        :     45.76s CPU     46.40s WALL (     198 calls)
     s_psi        :     12.03s CPU     12.12s WALL (     198 calls)
     g_psi        :      0.19s CPU      0.19s WALL (     154 calls)

     Called by h_psi:
     h_psi:calbec :     11.63s CPU     11.72s WALL (     198 calls)
     vloc_psi     :     21.49s CPU     21.82s WALL (     198 calls)
     add_vuspsi   :     12.23s CPU     12.34s WALL (     198 calls)

     General routines
     calbec       :     17.48s CPU     17.62s WALL (     250 calls)
     fft          :      0.36s CPU      0.37s WALL (     267 calls)
     ffts         :      0.47s CPU      0.48s WALL (     439 calls)
     fftw         :     22.42s CPU     22.75s WALL (   47628 calls)
 
     Parallel routines
 
     PWSCF        :   2m17.08s CPU   2m20.50s WALL

 
   This run was terminated on:  16: 9:39  11May2026            

=------------------------------------------------------------------------------=
   JOB DONE.
=------------------------------------------------------------------------------=
