
     Program PWSCF v.7.1 starts on 11May2026 at 16: 6:48 

     This program is part of the open-source Quantum ESPRESSO suite
     for quantum simulation of materials; please cite
         "P. Giannozzi et al., J. Phys.:Condens. Matter 21 395502 (2009);
         "P. Giannozzi et al., J. Phys.:Condens. Matter 29 465901 (2017);
         "P. Giannozzi et al., J. Chem. Phys. 152 154105 (2020);
          URL http://www.quantum-espresso.org", 
     in publications or presentations arising from this work. More details at
     http://www.quantum-espresso.org/quote

     Parallel version (MPI & OpenMP), running on      32 processor cores
     Number of MPI processes:                32
     Threads/MPI process:                     1

     MPI processes distributed on     1 nodes
     91328 MiB available memory on the printing compute node when the environment starts
 
     Reading input from TiAlN_x075finalrelaxedresult83895.in

     Current dimensions of program PWSCF are:
     Max number of different atomic species (ntypx) = 10
     Max number of k-points (npk) = 150000
     Max angular momentum in pseudopotentials (lmaxx) =  4
     file Al.pbe-n-kjpaw_psl.1.0.0.UPF: wavefunction(s)  3S 3P renormalized
     file N.pbe-n-kjpaw_psl.1.0.0.UPF: wavefunction(s)  2S renormalized
     file Ti.pbe-spn-kjpaw_psl.1.0.0.UPF: wavefunction(s)  3S 3P 3D renormalized
 
     K-points division:     npool     =       4
     R & G space division:  proc/nbgrp/npool/nimage =       8
     Subspace diagonalization in iterative solution of the eigenvalue problem:
     one sub-group per band group will be used
     scalapack distributed-memory algorithm (size of sub-group:  2*  2 procs)

 
     Parallelization info
     --------------------
     sticks:   dense  smooth     PW     G-vecs:    dense   smooth      PW
     Min         601     601    164                31251    31251    4447
     Max         602     602    165                31254    31254    4450
     Sum        4809    4809   1313               250023   250023   35585
 
     Using Slab Decomposition
 


     bravais-lattice index     =            0
     lattice parameter (alat)  =      15.8539  a.u.
     unit-cell volume          =    3984.7845 (a.u.)^3
     number of atoms/cell      =           64
     number of atomic types    =            3
     number of electrons       =       328.00
     number of Kohn-Sham states=          197
     kinetic-energy cutoff     =      60.0000  Ry
     charge density cutoff     =     240.0000  Ry
     scf convergence threshold =      1.0E-08
     mixing beta               =       0.2000
     number of iterations used =            8  local-TF  mixing
     Exchange-correlation= SLA  PW   PBX  PBC
                           (   1   4   3   4   0   0   0)

     celldm(1)=  15.853857  celldm(2)=   0.000000  celldm(3)=   0.000000
     celldm(4)=   0.000000  celldm(5)=   0.000000  celldm(6)=   0.000000

     crystal axes: (cart. coord. in units of alat)
               a(1) = (   1.000000   0.000000   0.000000 )  
               a(2) = (   0.000000   1.000000   0.000000 )  
               a(3) = (   0.000000   0.000000   1.000000 )  

     reciprocal axes: (cart. coord. in units 2 pi/alat)
               b(1) = (  1.000000  0.000000  0.000000 )  
               b(2) = (  0.000000  1.000000  0.000000 )  
               b(3) = (  0.000000  0.000000  1.000000 )  


     PseudoPot. # 1 for Al read from file:
     ../../../pseudo/Al.pbe-n-kjpaw_psl.1.0.0.UPF
     MD5 check sum: 502b6b27b9c6270cab5dd1084b96fa6d
     Pseudo is Projector augmented-wave + core cor, Zval =  3.0
     Generated using &quot;atomic&quot; code by A. Dal Corso  v.6.3
     Shape of augmentation charge: PSQ
     Using radial grid of 1135 points,  6 beta functions with: 
                l(1) =   0
                l(2) =   0
                l(3) =   1
                l(4) =   1
                l(5) =   2
                l(6) =   2
     Q(r) pseudized with 0 coefficients 


     PseudoPot. # 2 for N  read from file:
     ../../../pseudo/N.pbe-n-kjpaw_psl.1.0.0.UPF
     MD5 check sum: 14c48229446f9f2d411169a3abcbc3fa
     Pseudo is Projector augmented-wave + core cor, Zval =  5.0
     Generated using &quot;atomic&quot; code by A. Dal Corso  v.6.3
     Shape of augmentation charge: PSQ
     Using radial grid of 1085 points,  4 beta functions with: 
                l(1) =   0
                l(2) =   0
                l(3) =   1
                l(4) =   1
     Q(r) pseudized with 0 coefficients 


     PseudoPot. # 3 for Ti read from file:
     ../../../pseudo/Ti.pbe-spn-kjpaw_psl.1.0.0.UPF
     MD5 check sum: 01f69b0d8ba4438b2e03ac6ea4af1c0b
     Pseudo is Projector augmented-wave + core cor, Zval = 12.0
     Generated using &quot;atomic&quot; code by A. Dal Corso  v.6.2.2
     Shape of augmentation charge: PSQ
     Using radial grid of 1177 points,  6 beta functions with: 
                l(1) =   0
                l(2) =   0
                l(3) =   1
                l(4) =   1
                l(5) =   2
                l(6) =   2
     Q(r) pseudized with 0 coefficients 


     atomic species   valence    mass     pseudopotential
        Al             3.00    26.98200     Al( 1.00)
        N              5.00    14.00700     N ( 1.00)
        Ti            12.00    47.86700     Ti( 1.00)

     No symmetry found



   Cartesian axes

     site n.     atom                  positions (alat units)
         1           Al  tau(   1) = (   0.0002362   0.0015483  -0.0009620  )
         2           N   tau(   2) = (   0.2437081  -0.0012682   0.0000965  )
         3           Al  tau(   3) = (   0.0008363   0.2437347   0.2442407  )
         4           N   tau(   4) = (   0.2457664   0.2437607   0.2402173  )
         5           Al  tau(   5) = (   0.2453846  -0.0007588   0.2446977  )
         6           N   tau(   6) = (   0.0014132   0.0049122   0.2449866  )
         7           Al  tau(   7) = (   0.2442431   0.2440517   0.0001008  )
         8           N   tau(   8) = (   0.0003302   0.2440649   0.0000309  )
         9           Al  tau(   9) = (  -0.0003179   0.0028659   0.4915438  )
        10           N   tau(  10) = (   0.2429886  -0.0051169   0.4902263  )
        11           Al  tau(  11) = (  -0.0004043   0.2436965   0.7365399  )
        12           N   tau(  12) = (   0.2433734   0.2423975   0.7404459  )
        13           Al  tau(  13) = (   0.2451562  -0.0024256   0.7357685  )
        14           N   tau(  14) = (   0.0018659   0.0017421   0.7358462  )
        15           Ti  tau(  15) = (   0.2525541   0.2513073   0.4911594  )
        16           N   tau(  16) = (   0.0010960   0.2454866   0.4907841  )
        17           Al  tau(  17) = (  -0.0000795   0.4877515  -0.0034985  )
        18           N   tau(  18) = (   0.2384891   0.4915211   0.0004071  )
        19           Ti  tau(  19) = (  -0.0052986   0.7302012   0.2465369  )
        20           N   tau(  20) = (   0.2488648   0.7362771   0.2439691  )
        21           Al  tau(  21) = (   0.2465430   0.4911683   0.2419930  )
        22           N   tau(  22) = (   0.0081518   0.4831622   0.2443336  )
        23           Al  tau(  23) = (   0.2438595   0.7368798  -0.0002471  )
        24           N   tau(  24) = (  -0.0001253   0.7359777  -0.0029591  )
        25           Al  tau(  25) = (   0.0037811   0.4903198   0.4942698  )
        26           N   tau(  26) = (   0.2378884   0.4978537   0.4894416  )
        27           Al  tau(  27) = (   0.0003173   0.7361454   0.7353007  )
        28           N   tau(  28) = (   0.2395850   0.7351345   0.7361202  )
        29           Al  tau(  29) = (   0.2398919   0.4906226   0.7381213  )
        30           N   tau(  30) = (   0.0060684   0.4877087   0.7357863  )
        31           Al  tau(  31) = (   0.2458486   0.7366808   0.4902706  )
        32           N   tau(  32) = (   0.0009512   0.7380624   0.4932868  )
        33           Al  tau(  33) = (   0.4902556  -0.0006690  -0.0004688  )
        34           N   tau(  34) = (   0.7368805  -0.0013427   0.0004694  )
        35           Al  tau(  35) = (   0.4893877   0.2424548   0.2394528  )
        36           N   tau(  36) = (   0.7345885   0.2376579   0.2377564  )
        37           Al  tau(  37) = (   0.7337309   0.0018700   0.2456110  )
        38           N   tau(  38) = (   0.4880308   0.0022654   0.2447314  )
        39           Al  tau(  39) = (   0.7371763   0.2416317   0.0000349  )
        40           N   tau(  40) = (   0.4901909   0.2374258   0.0008837  )
        41           Al  tau(  41) = (   0.4910953  -0.0022531   0.4902701  )
        42           N   tau(  42) = (   0.7378253  -0.0044875   0.4900746  )
        43           Al  tau(  43) = (   0.4891139   0.2381273   0.7408102  )
        44           N   tau(  44) = (   0.7353473   0.2369030   0.7434038  )
        45           Al  tau(  45) = (   0.7356690   0.0008484   0.7350634  )
        46           N   tau(  46) = (   0.4884463   0.0038412   0.7350327  )
        47           Ti  tau(  47) = (   0.7289705   0.2575366   0.4915437  )
        48           N   tau(  48) = (   0.4896959   0.2336094   0.4879943  )
        49           Ti  tau(  49) = (   0.4963525   0.4941156  -0.0088581  )
        50           N   tau(  50) = (   0.7433984   0.4927440   0.0015582  )
        51           Al  tau(  51) = (   0.4887488   0.7380421   0.2453784  )
        52           N   tau(  52) = (   0.7286053   0.7446070   0.2430604  )
        53           Ti  tau(  53) = (   0.7326132   0.4893044   0.2534495  )
        54           N   tau(  54) = (   0.4820799   0.4869230   0.2422866  )
        55           Al  tau(  55) = (   0.7369272   0.7393511  -0.0007930  )
        56           N   tau(  56) = (   0.4900565   0.7428112   0.0057720  )
        57           Ti  tau(  57) = (   0.4979926   0.4868332   0.4968449  )
        58           N   tau(  58) = (   0.7502434   0.5070928   0.4895688  )
        59           Ti  tau(  59) = (   0.4952846   0.7220599   0.7332305  )
        60           N   tau(  60) = (   0.7427514   0.7452875   0.7370855  )
        61           Ti  tau(  61) = (   0.7243166   0.4911165   0.7288658  )
        62           N   tau(  62) = (   0.4740201   0.4728918   0.7362835  )
        63           Al  tau(  63) = (   0.7358002   0.7418381   0.4912138  )
        64           N   tau(  64) = (   0.4908495   0.7435085   0.4829465  )

     number of k points=     8  Gaussian smearing, width (Ry)=  0.0050
                       cart. coord. in units 2pi/alat
        k(    1) = (   0.0000000   0.0000000   0.0000000), wk =   0.2500000
        k(    2) = (   0.0000000   0.0000000  -0.5000000), wk =   0.2500000
        k(    3) = (   0.0000000  -0.5000000  -0.5000000), wk =   0.2500000
        k(    4) = (  -0.5000000  -0.5000000  -0.5000000), wk =   0.2500000
        k(    5) = (  -0.5000000   0.0000000   0.0000000), wk =   0.2500000
        k(    6) = (   0.0000000  -0.5000000   0.0000000), wk =   0.2500000
        k(    7) = (  -0.5000000   0.0000000   0.5000000), wk =   0.2500000
        k(    8) = (  -0.5000000   0.5000000   0.0000000), wk =   0.2500000

     Dense  grid:   250023 G-vectors     FFT dimensions: (  80,  80,  80)

     Estimated max dynamical RAM per process >     182.69 MB

     Estimated total dynamical RAM >       5.53 GB

     Check: negative core charge=   -0.000013

     Initial potential from superposition of free atoms

     starting charge     327.9330, renormalised to     328.0000
     Starting wfcs are  304 randomized atomic wfcs
     Checking if some PAW data can be deallocated... 

     total cpu time spent up to now is        3.3 secs

     Self-consistent Calculation

     iteration #  1     ecut=    60.00 Ry     beta= 0.20
     Davidson diagonalization with overlap
     ethr =  1.00E-02,  avg # of iterations =  2.0

     total cpu time spent up to now is        8.7 secs

     total energy              =   -3328.24884647 Ry
     estimated scf accuracy    <      17.04654389 Ry

     iteration #  2     ecut=    60.00 Ry     beta= 0.20
     Davidson diagonalization with overlap
     ethr =  5.20E-03,  avg # of iterations =  1.0

     total cpu time spent up to now is       13.1 secs

     total energy              =   -3324.48924036 Ry
     estimated scf accuracy    <       9.44015172 Ry

     iteration #  3     ecut=    60.00 Ry     beta= 0.20
     Davidson diagonalization with overlap
     ethr =  2.88E-03,  avg # of iterations =  2.2

     total cpu time spent up to now is       19.0 secs

     total energy              =   -3326.41392483 Ry
     estimated scf accuracy    <       1.08064105 Ry

     iteration #  4     ecut=    60.00 Ry     beta= 0.20
     Davidson diagonalization with overlap
     ethr =  3.29E-04,  avg # of iterations =  4.4

     total cpu time spent up to now is       24.5 secs

     total energy              =   -3326.39034622 Ry
     estimated scf accuracy    <       0.51499438 Ry

     iteration #  5     ecut=    60.00 Ry     beta= 0.20
     Davidson diagonalization with overlap
     ethr =  1.57E-04,  avg # of iterations =  9.8

     total cpu time spent up to now is       31.2 secs

     total energy              =   -3326.36455925 Ry
     estimated scf accuracy    <       0.26857798 Ry

     iteration #  6     ecut=    60.00 Ry     beta= 0.20
     Davidson diagonalization with overlap
     ethr =  8.19E-05,  avg # of iterations = 11.1

     total cpu time spent up to now is       37.6 secs

     total energy              =   -3326.36825544 Ry
     estimated scf accuracy    <       0.08500925 Ry

     iteration #  7     ecut=    60.00 Ry     beta= 0.20
     Davidson diagonalization with overlap
     ethr =  2.59E-05,  avg # of iterations = 12.5

     total cpu time spent up to now is       44.9 secs

     total energy              =   -3326.36222471 Ry
     estimated scf accuracy    <       0.04450873 Ry

     iteration #  8     ecut=    60.00 Ry     beta= 0.20
     Davidson diagonalization with overlap
     ethr =  1.36E-05,  avg # of iterations =  6.1

     total cpu time spent up to now is       51.3 secs

     total energy              =   -3326.36693878 Ry
     estimated scf accuracy    <       0.00724006 Ry

     iteration #  9     ecut=    60.00 Ry     beta= 0.20
     Davidson diagonalization with overlap
     ethr =  2.21E-06,  avg # of iterations = 15.8

     total cpu time spent up to now is       58.9 secs

     total energy              =   -3326.36715975 Ry
     estimated scf accuracy    <       0.00306290 Ry

     iteration # 10     ecut=    60.00 Ry     beta= 0.20
     Davidson diagonalization with overlap
     ethr =  9.34E-07,  avg # of iterations =  6.1

     total cpu time spent up to now is       65.0 secs

     total energy              =   -3326.36702457 Ry
     estimated scf accuracy    <       0.00139395 Ry

     iteration # 11     ecut=    60.00 Ry     beta= 0.20
     Davidson diagonalization with overlap
     ethr =  4.25E-07,  avg # of iterations =  2.2

     total cpu time spent up to now is       70.2 secs

     total energy              =   -3326.36705174 Ry
     estimated scf accuracy    <       0.00037896 Ry

     iteration # 12     ecut=    60.00 Ry     beta= 0.20
     Davidson diagonalization with overlap
     ethr =  1.16E-07,  avg # of iterations =  3.0

     total cpu time spent up to now is       75.7 secs

     total energy              =   -3326.36705770 Ry
     estimated scf accuracy    <       0.00010008 Ry

     iteration # 13     ecut=    60.00 Ry     beta= 0.20
     Davidson diagonalization with overlap
     ethr =  3.05E-08,  avg # of iterations =  3.2

     total cpu time spent up to now is       81.3 secs

     total energy              =   -3326.36706294 Ry
     estimated scf accuracy    <       0.00002134 Ry

     iteration # 14     ecut=    60.00 Ry     beta= 0.20
     Davidson diagonalization with overlap
     ethr =  6.51E-09,  avg # of iterations =  5.4

     total cpu time spent up to now is       87.4 secs

     total energy              =   -3326.36706215 Ry
     estimated scf accuracy    <       0.00001013 Ry

     iteration # 15     ecut=    60.00 Ry     beta= 0.20
     Davidson diagonalization with overlap
     ethr =  3.09E-09,  avg # of iterations =  2.0

     total cpu time spent up to now is       92.4 secs

     total energy              =   -3326.36706123 Ry
     estimated scf accuracy    <       0.00000570 Ry

     iteration # 16     ecut=    60.00 Ry     beta= 0.20
     Davidson diagonalization with overlap
     ethr =  1.74E-09,  avg # of iterations =  2.0

     total cpu time spent up to now is       97.6 secs

     total energy              =   -3326.36706172 Ry
     estimated scf accuracy    <       0.00000093 Ry

     iteration # 17     ecut=    60.00 Ry     beta= 0.20
     Davidson diagonalization with overlap
     ethr =  2.83E-10,  avg # of iterations =  4.2

     total cpu time spent up to now is      103.6 secs

     total energy              =   -3326.36706170 Ry
     estimated scf accuracy    <       0.00000038 Ry

     iteration # 18     ecut=    60.00 Ry     beta= 0.20
     Davidson diagonalization with overlap
     ethr =  1.16E-10,  avg # of iterations =  2.2

     total cpu time spent up to now is      108.6 secs

     total energy              =   -3326.36706169 Ry
     estimated scf accuracy    <       0.00000018 Ry

     iteration # 19     ecut=    60.00 Ry     beta= 0.20
     Davidson diagonalization with overlap
     ethr =  5.41E-11,  avg # of iterations =  3.0

     total cpu time spent up to now is      114.3 secs

     total energy              =   -3326.36706171 Ry
     estimated scf accuracy    <       0.00000004 Ry

     iteration # 20     ecut=    60.00 Ry     beta= 0.20
     Davidson diagonalization with overlap
     ethr =  1.17E-11,  avg # of iterations =  3.8

     total cpu time spent up to now is      120.1 secs

     total energy              =   -3326.36706171 Ry
     estimated scf accuracy    <       0.00000002 Ry

     iteration # 21     ecut=    60.00 Ry     beta= 0.20
     Davidson diagonalization with overlap
     ethr =  6.62E-12,  avg # of iterations =  2.0

     total cpu time spent up to now is      125.0 secs

     End of self-consistent calculation

          k = 0.0000 0.0000 0.0000 ( 31343 PWs)   bands (ev):

   -45.2776 -45.0898 -44.8107 -44.5573 -44.4852 -44.3867 -44.1584 -43.9170
   -21.7001 -21.5111 -21.5093 -21.5056 -21.3964 -21.3858 -21.2163 -21.1715
   -21.1193 -21.0099 -20.9498 -20.9281 -20.8775 -20.8536 -20.8237 -20.7956
   -20.7633 -20.6140 -20.5149 -20.4899 -20.4095 -20.2908 -20.2396 -20.1457
    -5.2639  -4.1438  -3.9840  -3.9070  -3.7081  -3.6732  -3.5802  -3.0958
    -2.9352  -2.9178  -2.8880  -2.7771  -2.7469  -2.6706  -2.6240  -2.5919
    -2.5436  -2.4858  -2.4281  -2.3809  -2.3792  -2.2469  -2.1847  -2.0883
    -2.0396  -1.9674  -1.7469  -1.7186  -1.7002  -1.6455  -1.5865  -1.4672
     3.6950   3.7310   3.8132   3.8516   4.9149   4.9692   4.9705   5.1936
     5.2577   5.3184   5.3721   5.5466   5.6103   5.6623   5.6958   5.8445
     5.8909   6.0124   6.0489   6.1433   6.2033   6.2217   6.3068   6.3217
     6.3682   6.3963   6.4261   6.4780   6.5326   6.5839   6.6081   6.8950
     6.9490   7.0145   7.1149   7.2506   7.2905   7.3618   7.4269   7.5087
     7.5272   7.5764   7.6577   7.7072   7.7367   7.7903   7.8140   7.8433
     7.9159   7.9305   7.9473   8.0812   8.1638   8.2042   8.4327   8.8474
     8.8669   8.9349   8.9797   8.9991   9.0111   9.0573   9.0762   9.1294
     9.1662   9.2181   9.2369   9.3108   9.3931   9.5433   9.5596   9.6064
     9.6774   9.7083   9.7499   9.7879   9.8610   9.9089   9.9290   9.9382
     9.9577   9.9868  10.0041  10.0486  10.0656  10.1053  10.1410  10.1458
    10.2057  10.2467  10.2781  10.3650  10.3915  11.1716  11.1938  11.2000
    11.8649  12.0197  12.1223  13.0301  13.0946  13.2241  13.3174  13.4907
    13.5519  13.8660  14.0558  14.2713  14.4751  14.5477  14.6460  14.7431
    14.8306  14.8524  14.9183  14.9939  15.1237  15.2274  15.3388  15.4131
    15.4440  15.4800  15.5086  15.6393  15.7533  15.8280  15.9064  15.9355
    16.0284  16.0685  16.1231  16.3600  16.4321

          k = 0.0000 0.0000-0.5000 ( 31256 PWs)   bands (ev):

   -45.2776 -45.0898 -44.8107 -44.5573 -44.4852 -44.3867 -44.1584 -43.9170
   -21.7001 -21.5111 -21.5092 -21.5056 -21.3964 -21.3858 -21.2153 -21.1715
   -21.1191 -21.0098 -20.9504 -20.9251 -20.8814 -20.8517 -20.8283 -20.7971
   -20.7581 -20.6153 -20.5148 -20.4894 -20.4093 -20.2908 -20.2398 -20.1455
    -4.9756  -4.7740  -3.8604  -3.7433  -3.7018  -3.4788  -3.4204  -3.3175
    -3.2807  -3.1947  -2.8233  -2.7676  -2.7328  -2.6220  -2.5834  -2.5017
    -2.4793  -2.4412  -2.3827  -2.3043  -2.2167  -2.1242  -2.0205  -2.0094
    -1.9423  -1.9228  -1.8808  -1.8637  -1.8084  -1.7244  -1.6460  -1.6108
     4.1436   4.2321   4.2913   4.3286   4.4692   4.5677   4.6722   4.7374
     5.1557   5.1693   5.2690   5.3371   5.3799   5.4509   5.4667   5.5115
     5.5262   5.6063   5.7609   5.8967   6.1585   6.3144   6.4035   6.4473
     6.4574   6.5119   6.5659   6.6062   6.6558   6.7021   6.7679   6.8251
     6.9268   6.9755   7.0323   7.0511   7.0884   7.1538   7.7059   7.7261
     7.7831   7.9193   8.0356   8.1228   8.1432   8.2573   8.3091   8.3135
     8.4108   8.4764   8.5254   8.6018   8.6289   8.6855   8.7073   8.7274
     8.7513   8.7662   8.8177   8.8433   8.8686   8.9031   8.9533   8.9942
     9.0662   9.0945   9.2007   9.2076   9.2628   9.2819   9.2973   9.3429
     9.4150   9.4306   9.4805   9.5562   9.5756   9.6221   9.6515   9.7783
     9.8070   9.8269   9.8626   9.9804  10.0453  10.0587  10.0718  10.1004
    10.1614  10.2031  10.2535  10.3068  10.6121  10.6634  10.7975  10.7987
    12.1465  12.6862  12.7196  12.8332  13.2506  13.2806  13.4132  13.6009
    13.6423  13.7961  13.8198  14.0069  14.2356  14.3296  14.5153  14.6237
    14.6693  14.8438  15.1004  15.2567  15.2703  15.3345  15.3867  15.4423
    15.5236  15.6408  15.6933  15.7592  15.8494  15.9842  16.0345  16.1235
    16.1750  16.2111  16.2625  16.3482  16.5959

          k = 0.0000-0.5000-0.5000 ( 31256 PWs)   bands (ev):

   -45.2776 -45.0898 -44.8107 -44.5573 -44.4852 -44.3867 -44.1584 -43.9170
   -21.7001 -21.5111 -21.5093 -21.5056 -21.3964 -21.3858 -21.2153 -21.1715
   -21.1192 -21.0098 -20.9504 -20.9251 -20.8813 -20.8518 -20.8283 -20.7971
   -20.7580 -20.6154 -20.5148 -20.4893 -20.4094 -20.2908 -20.2398 -20.1455
    -4.7150  -4.5227  -4.4840  -4.2936  -3.4796  -3.3246  -3.2935  -3.2539
    -3.1679  -3.1040  -3.0090  -2.9371  -2.6898  -2.5940  -2.5039  -2.4975
    -2.4013  -2.3593  -2.3141  -2.2447  -2.2016  -2.1196  -2.0908  -2.0224
    -1.9961  -1.9155  -1.8920  -1.8617  -1.8454  -1.7694  -1.6448  -1.5886
     4.2311   4.2439   4.3606   4.4622   4.5697   4.7220   4.9009   5.0350
     5.1400   5.2331   5.2977   5.3261   5.3441   5.3797   5.4474   5.5238
     5.5595   5.6029   5.7135   5.7887   5.7952   5.9240   5.9560   6.0087
     6.0650   6.0716   6.1961   6.2649   6.4036   6.4761   7.0384   7.0520
     7.2397   7.4611   7.5411   7.6338   7.6793   7.7333   7.7475   7.8046
     7.8470   7.8917   7.9705   8.0067   8.0659   8.0963   8.1759   8.2099
     8.2214   8.2850   8.3593   8.4166   8.4713   8.4839   8.5052   8.6337
     8.6609   8.7261   8.8302   8.8686   8.9593   8.9785   8.9986   9.0530
     9.0788   9.1507   9.2287   9.2521   9.2702   9.3754   9.4527   9.4794
     9.5367   9.5560   9.5782   9.6529   9.7140   9.7362   9.7558   9.7816
     9.7938   9.8351   9.8866   9.9186   9.9366   9.9838  10.0003  10.0610
    10.0981  10.1264  10.1362  10.3736  10.5980  10.6445  10.7574  10.8697
    12.5663  12.6879  12.7278  13.1035  13.1912  13.3003  13.4599  13.5506
    13.6195  13.6662  13.8395  14.0411  14.1834  14.3105  14.4011  14.5381
    14.6053  14.7926  15.1090  15.1900  15.2447  15.2946  15.3521  15.4345
    15.5092  15.6991  15.7512  15.9350  16.0058  16.0249  16.1280  16.1989
    16.3226  16.3776  16.6018  16.6457  16.8660

          k =-0.5000-0.5000-0.5000 ( 31144 PWs)   bands (ev):

   -45.2776 -45.0897 -44.8107 -44.5573 -44.4852 -44.3867 -44.1584 -43.9170
   -21.7001 -21.5112 -21.5092 -21.5056 -21.3962 -21.3857 -21.2153 -21.1715
   -21.1192 -21.0098 -20.9504 -20.9252 -20.8813 -20.8522 -20.8283 -20.7971
   -20.7580 -20.6154 -20.5148 -20.4893 -20.4094 -20.2907 -20.2397 -20.1456
    -4.5106  -4.3642  -4.3054  -4.1580  -4.0701  -3.9484  -3.8371  -3.6132
    -2.7696  -2.6969  -2.6326  -2.5883  -2.4618  -2.4346  -2.4216  -2.3835
    -2.3316  -2.2776  -2.2511  -2.2294  -2.2118  -2.1162  -2.1124  -2.0830
    -2.0609  -1.9911  -1.9594  -1.9377  -1.9109  -1.8756  -1.8377  -1.7789
     4.5016   4.6128   4.6960   4.7442   4.7745   4.7910   4.8468   4.8665
     4.8960   4.9603   4.9948   5.0128   5.0458   5.0756   5.1293   5.2385
     5.3102   5.4521   5.6190   5.7597   5.8225   5.8256   6.0460   6.1159
     6.7839   6.8275   6.8978   6.9887   7.0198   7.1007   7.1288   7.1988
     7.2165   7.2748   7.3324   7.4246   7.4478   7.4958   7.5626   7.5945
     7.6080   7.6683   7.7309   7.8012   7.8355   7.8540   7.8707   7.9340
     7.9394   8.0006   8.0724   8.0918   8.1446   8.3003   8.3877   8.4536
     8.7328   8.7387   8.8222   8.8946   8.9189   8.9800   8.9913   9.0413
     9.0945   9.1266   9.2117   9.2652   9.2783   9.3732   9.3904   9.4270
     9.5276   9.5661   9.5915   9.6392   9.6851   9.7408   9.8258   9.8344
    10.0881  10.1057  10.1697  10.2044  10.2824  10.3176  10.3582  10.3811
    10.4614  10.5100  10.5192  10.5700  10.5769  10.5991  10.6162  10.6587
    12.6177  12.7204  12.7503  13.1344  13.1770  13.2295  13.3367  13.5265
    13.5809  13.6605  13.7821  13.8736  14.0728  14.1476  14.1907  14.4012
    14.5274  14.6150  15.1041  15.1531  15.2895  15.3558  15.4090  15.5487
    15.7374  15.8862  16.0462  16.0884  16.1847  16.2774  16.3220  16.3967
    16.4546  16.5717  16.8009  16.8486  16.8974

          k =-0.5000 0.0000 0.0000 ( 31256 PWs)   bands (ev):

   -45.2776 -45.0898 -44.8107 -44.5573 -44.4852 -44.3867 -44.1584 -43.9170
   -21.7001 -21.5111 -21.5092 -21.5056 -21.3962 -21.3857 -21.2163 -21.1715
   -21.1193 -21.0099 -20.9498 -20.9282 -20.8774 -20.8540 -20.8238 -20.7956
   -20.7632 -20.6140 -20.5149 -20.4899 -20.4095 -20.2906 -20.2395 -20.1458
    -5.0366  -4.6809  -3.8681  -3.7498  -3.6269  -3.5503  -3.4693  -3.3043
    -3.2690  -3.1773  -2.9030  -2.7633  -2.7029  -2.6042  -2.5696  -2.5555
    -2.5160  -2.4696  -2.3440  -2.3161  -2.2599  -2.0906  -2.0319  -2.0255
    -1.9375  -1.9060  -1.8380  -1.8271  -1.7616  -1.7266  -1.6442  -1.6171
     4.1551   4.2081   4.2638   4.3709   4.4810   4.5581   4.7494   4.9105
     5.0674   5.0904   5.1991   5.3456   5.4071   5.4563   5.4905   5.6044
     5.7310   5.7953   5.8435   5.8790   6.0216   6.1723   6.2346   6.3026
     6.3882   6.4258   6.5080   6.5396   6.6496   6.6686   6.7089   6.7437
     6.8625   6.9455   7.0191   7.1129   7.1563   7.3051   7.7574   7.8229
     7.8245   7.8722   7.9638   8.0409   8.0601   8.1015   8.1613   8.2105
     8.4349   8.4709   8.5089   8.6001   8.6403   8.6638   8.6963   8.7581
     8.7939   8.8545   8.8601   8.8997   8.9425   8.9883   9.0208   9.0446
     9.0706   9.1403   9.2132   9.2157   9.2802   9.2946   9.3307   9.3400
     9.3934   9.4373   9.4535   9.4931   9.5885   9.6855   9.7094   9.7452
     9.7824   9.8326   9.9168   9.9905  10.0336  10.1002  10.1415  10.1678
    10.1855  10.2014  10.2445  10.2871  10.6717  10.6784  10.7644  10.7705
    12.0491  12.3590  12.6444  13.0036  13.2776  13.4038  13.6084  13.6375
    13.7528  13.8539  13.9631  14.0898  14.1573  14.2672  14.6337  14.6673
    14.7156  14.8425  14.9600  15.0933  15.2024  15.3177  15.4033  15.4739
    15.5015  15.5714  15.6379  15.8282  15.8434  16.0063  16.0331  16.0738
    16.1513  16.2438  16.3122  16.4102  16.4408

          k = 0.0000-0.5000 0.0000 ( 31256 PWs)   bands (ev):

   -45.2776 -45.0898 -44.8107 -44.5573 -44.4852 -44.3867 -44.1584 -43.9170
   -21.7001 -21.5111 -21.5093 -21.5056 -21.3964 -21.3858 -21.2163 -21.1715
   -21.1193 -21.0099 -20.9498 -20.9281 -20.8775 -20.8537 -20.8236 -20.7955
   -20.7633 -20.6141 -20.5149 -20.4898 -20.4095 -20.2908 -20.2396 -20.1457
    -4.9812  -4.7820  -3.7347  -3.7068  -3.6653  -3.5123  -3.4615  -3.4446
    -3.3504  -3.1600  -2.8046  -2.7851  -2.6632  -2.5912  -2.5903  -2.5548
    -2.4765  -2.4535  -2.4012  -2.3373  -2.2453  -2.2112  -2.0898  -2.0313
    -1.9583  -1.9014  -1.8409  -1.7908  -1.7734  -1.6807  -1.6685  -1.4744
     4.0872   4.1210   4.3660   4.3950   4.5136   4.5904   4.7510   4.9278
     5.0815   5.1101   5.2728   5.3498   5.4074   5.4944   5.5387   5.5833
     5.6165   5.7154   5.8258   6.0208   6.0829   6.1137   6.1965   6.2371
     6.3864   6.4121   6.4875   6.5613   6.6212   6.6936   6.7393   6.7825
     6.9163   6.9819   7.0826   7.1141   7.1709   7.2039   7.6435   7.6846
     7.7071   7.7397   7.9071   8.0016   8.0641   8.0987   8.1475   8.1992
     8.2821   8.4616   8.5078   8.5850   8.5960   8.6486   8.6731   8.7039
     8.7529   8.7856   8.8446   8.8650   8.9458   8.9559   8.9947   9.0084
     9.0512   9.0967   9.1553   9.1971   9.2417   9.3168   9.3702   9.4405
     9.4927   9.5157   9.5739   9.5843   9.6028   9.6406   9.6939   9.8912
     9.9061   9.9381   9.9881  10.0158  10.0341  10.1290  10.2115  10.2279
    10.2537  10.2781  10.3725  10.3900  10.6413  10.6658  10.7784  10.7913
    11.8722  12.4681  12.5792  13.1802  13.2522  13.3111  13.3901  13.6151
    13.7003  13.7672  14.0690  14.2734  14.3580  14.4744  14.6093  14.6773
    14.7719  14.8540  14.9300  15.0249  15.1470  15.2383  15.3296  15.3770
    15.4240  15.4684  15.5440  15.7917  15.8013  15.9284  16.0026  16.0537
    16.1061  16.2946  16.4428  16.5181  16.5895

          k =-0.5000 0.0000 0.5000 ( 31256 PWs)   bands (ev):

   -45.2776 -45.0898 -44.8107 -44.5573 -44.4852 -44.3867 -44.1584 -43.9170
   -21.7001 -21.5111 -21.5092 -21.5056 -21.3962 -21.3857 -21.2153 -21.1715
   -21.1191 -21.0098 -20.9504 -20.9252 -20.8813 -20.8522 -20.8283 -20.7971
   -20.7581 -20.6153 -20.5148 -20.4894 -20.4093 -20.2907 -20.2397 -20.1456
    -4.7611  -4.5653  -4.4064  -4.1995  -3.5732  -3.3720  -3.3495  -3.2419
    -3.2062  -3.0628  -3.0212  -2.9245  -2.6123  -2.5841  -2.4782  -2.4263
    -2.3905  -2.3775  -2.2623  -2.2120  -2.1993  -2.1407  -2.0983  -1.9859
    -1.9763  -1.9507  -1.9341  -1.8579  -1.8491  -1.8062  -1.7373  -1.5918
     4.2806   4.3448   4.3765   4.4094   4.6607   4.7207   4.8084   4.8548
     5.0422   5.1476   5.1937   5.2420   5.3372   5.4026   5.4494   5.5042
     5.5251   5.5990   5.6057   5.7848   5.8183   5.8805   5.9705   6.0048
     6.1504   6.2738   6.3079   6.4508   6.5262   6.6722   6.8263   6.9900
     7.3114   7.3861   7.6398   7.6698   7.7638   7.7980   7.8489   7.8929
     7.9176   7.9268   7.9619   8.0052   8.1215   8.1467   8.2110   8.2732
     8.3206   8.3306   8.3561   8.4013   8.4898   8.5799   8.6007   8.6337
     8.6692   8.7053   8.7378   8.7832   8.9118   8.9250   8.9857   9.0316
     9.0704   9.1041   9.1492   9.1689   9.1939   9.2514   9.3282   9.3840
     9.4874   9.5140   9.5371   9.5897   9.6305   9.6570   9.6934   9.7339
     9.7753   9.7889   9.8663   9.8738   9.9374  10.0112  10.0599  10.0961
    10.1084  10.1612  10.1999  10.2763  10.6510  10.6853  10.7914  10.8598
    12.6339  12.7218  12.7593  13.1799  13.2238  13.2638  13.4181  13.5393
    13.6627  13.7582  13.7975  13.9424  14.1310  14.1861  14.2944  14.4152
    14.6524  14.6873  15.1277  15.2075  15.3463  15.3862  15.4215  15.5013
    15.5507  15.5868  15.8901  15.9520  15.9963  16.0131  16.0852  16.2055
    16.2579  16.3961  16.6350  16.7293  16.7831

          k =-0.5000 0.5000 0.0000 ( 31256 PWs)   bands (ev):

   -45.2776 -45.0898 -44.8107 -44.5573 -44.4852 -44.3867 -44.1584 -43.9170
   -21.7001 -21.5112 -21.5092 -21.5056 -21.3962 -21.3857 -21.2163 -21.1715
   -21.1193 -21.0099 -20.9498 -20.9282 -20.8774 -20.8541 -20.8237 -20.7955
   -20.7633 -20.6141 -20.5149 -20.4898 -20.4095 -20.2906 -20.2395 -20.1458
    -4.7724  -4.5946  -4.3806  -4.1471  -3.5781  -3.3803  -3.3437  -3.2216
    -3.1837  -3.0371  -3.0285  -2.9089  -2.7689  -2.6788  -2.5692  -2.4273
    -2.3958  -2.3347  -2.2904  -2.2659  -2.1537  -2.1041  -2.0519  -2.0435
    -1.9947  -1.9407  -1.9177  -1.8491  -1.7900  -1.7339  -1.6732  -1.5614
     4.1733   4.2089   4.4213   4.5284   4.5623   4.6196   5.0465   5.1184
     5.2069   5.2723   5.3480   5.3518   5.3865   5.4329   5.5156   5.5175
     5.5426   5.6077   5.6410   5.6763   5.7109   5.8078   5.8906   6.0260
     6.0802   6.1750   6.3120   6.3316   6.3998   6.5251   6.5927   6.9175
     7.1703   7.2172   7.4721   7.5944   7.6983   7.7475   7.7879   7.7963
     7.8835   7.9529   7.9648   8.0388   8.0427   8.0757   8.1114   8.1701
     8.2566   8.3062   8.3702   8.3790   8.4462   8.4707   8.5701   8.5867
     8.7003   8.7375   8.7758   8.8249   8.9326   8.9653   9.0524   9.1360
     9.1616   9.1946   9.2398   9.3309   9.3773   9.4281   9.4517   9.4674
     9.5136   9.5878   9.6278   9.6678   9.6939   9.7297   9.7761   9.7953
     9.8162   9.8389   9.8997   9.9155   9.9607   9.9983  10.0606  10.0886
    10.1178  10.1983  10.2228  10.2612  10.5100  10.7016  10.7706  10.8271
    12.3602  12.4807  12.6504  13.2471  13.3049  13.3361  13.6341  13.6878
    13.7443  13.7887  13.8498  14.0400  14.0889  14.2711  14.5427  14.6268
    14.6675  14.8088  14.8746  15.0624  15.0983  15.2779  15.3393  15.4051
    15.6922  15.7357  15.8033  15.8588  15.9143  15.9528  16.1490  16.3110
    16.3798  16.4948  16.6321  16.7266  16.7641

     the Fermi energy is    13.1729 ev

!    total energy              =   -3326.36706170 Ry
     total all-electron energy =    -28826.738608 Ry
     estimated scf accuracy    <          7.5E-09 Ry
     smearing contrib. (-TS)   =      -0.00287908 Ry
     internal energy E=F+TS    =   -3326.36418262 Ry

     The total energy is F=E-TS. E is the sum of the following terms:
     one-electron contribution =    -552.63152232 Ry
     hartree contribution      =     493.96380921 Ry
     xc contribution           =    -400.53232133 Ry
     ewald contribution        =   -1257.70277667 Ry
     one-center paw contrib.   =   -1609.46137151 Ry

     convergence has been achieved in  21 iterations

     Forces acting on atoms (cartesian axes, Ry/au):

     atom    1 type  1   force =    -0.01594961   -0.01227906   -0.01069061
     atom    2 type  2   force =    -0.00040949   -0.02590323   -0.02285970
     atom    3 type  1   force =    -0.01329782   -0.00102912    0.00239680
     atom    4 type  2   force =     0.00222027    0.00269086    0.00114153
     atom    5 type  1   force =    -0.00170683   -0.01648868    0.00038662
     atom    6 type  2   force =    -0.01901796   -0.02252863   -0.00001150
     atom    7 type  1   force =    -0.00008066   -0.00084592   -0.02181466
     atom    8 type  2   force =    -0.02451970    0.00085882   -0.02455932
     atom    9 type  1   force =    -0.01835470   -0.01337831   -0.00489146
     atom   10 type  2   force =     0.00088012   -0.03134547   -0.00033578
     atom   11 type  1   force =    -0.01526414    0.00210891    0.01459978
     atom   12 type  2   force =    -0.00011380   -0.00126017    0.02672326
     atom   13 type  1   force =     0.00109000   -0.01835930    0.01472165
     atom   14 type  2   force =    -0.02101877   -0.02234441    0.02304776
     atom   15 type  3   force =    -0.00114317    0.00178110    0.00053997
     atom   16 type  2   force =    -0.03139649    0.00159611    0.00008679
     atom   17 type  1   force =    -0.02323042   -0.00125995   -0.01728643
     atom   18 type  2   force =    -0.00165740   -0.00040737   -0.02589925
     atom   19 type  3   force =    -0.02945968    0.02156436    0.00124264
     atom   20 type  2   force =    -0.00452862    0.02128927    0.00054109
     atom   21 type  1   force =    -0.00074996   -0.00171503    0.00146141
     atom   22 type  2   force =    -0.02907277    0.00708611    0.00133799
     atom   23 type  1   force =     0.00195432    0.01752373   -0.01682403
     atom   24 type  2   force =    -0.02199401    0.01992738   -0.02752497
     atom   25 type  1   force =    -0.02913325   -0.00266409   -0.00117191
     atom   26 type  2   force =    -0.00025773    0.00033244   -0.00033829
     atom   27 type  1   force =    -0.02134103    0.01117178    0.01747740
     atom   28 type  2   force =    -0.00374732    0.02399397    0.02209602
     atom   29 type  1   force =     0.00124481   -0.00093573    0.01709340
     atom   30 type  2   force =    -0.02386287   -0.00007699    0.02561132
     atom   31 type  1   force =     0.00167125    0.02292717    0.00068950
     atom   32 type  2   force =    -0.02270012    0.01955313    0.00193805
     atom   33 type  1   force =     0.00008329   -0.02576312   -0.01337367
     atom   34 type  2   force =     0.02239248   -0.02716583   -0.02251803
     atom   35 type  1   force =    -0.00028728   -0.00107893    0.00009886
     atom   36 type  2   force =     0.01924784   -0.00040013   -0.00185243
     atom   37 type  1   force =     0.01384517   -0.02822013    0.00189326
     atom   38 type  2   force =    -0.00086794   -0.02630205    0.00170395
     atom   39 type  1   force =     0.01585220   -0.00025959   -0.02494985
     atom   40 type  2   force =    -0.00096809   -0.00093247   -0.02794938
     atom   41 type  1   force =     0.00131217   -0.03070821   -0.00101559
     atom   42 type  2   force =     0.02254851   -0.04010862    0.00065615
     atom   43 type  1   force =    -0.00049261    0.00096180    0.02123453
     atom   44 type  2   force =     0.02068752   -0.00576383    0.03170619
     atom   45 type  1   force =     0.01052393   -0.02563092    0.01137437
     atom   46 type  2   force =    -0.00099731   -0.02211772    0.02110175
     atom   47 type  3   force =     0.02764275    0.00015732    0.00213114
     atom   48 type  2   force =     0.00739963    0.00234106    0.00023028
     atom   49 type  3   force =    -0.00123690   -0.00277632   -0.04458653
     atom   50 type  2   force =     0.02925748    0.00113674   -0.03424095
     atom   51 type  1   force =     0.00439097    0.01637717   -0.00039372
     atom   52 type  2   force =     0.02976878    0.03141374   -0.00156657
     atom   53 type  3   force =     0.02149850    0.00217445   -0.00142490
     atom   54 type  2   force =     0.00456196    0.00051369   -0.00979992
     atom   55 type  1   force =     0.01377342    0.02184434   -0.01123554
     atom   56 type  2   force =    -0.00100393    0.02789453   -0.02606991
     atom   57 type  3   force =     0.00375133    0.00218328   -0.00397398
     atom   58 type  2   force =     0.03394013    0.00232991    0.00961732
     atom   59 type  3   force =    -0.00368380    0.02382772    0.02655608
     atom   60 type  2   force =     0.03069017    0.03744235    0.02365810
     atom   61 type  3   force =     0.02453708   -0.00615055    0.02420527
     atom   62 type  2   force =     0.00389039    0.00430439    0.05175251
     atom   63 type  1   force =     0.01406715    0.03267084   -0.00609722
     atom   64 type  2   force =    -0.00117746    0.03422139    0.00420341

     Total force =     0.239916     Total SCF correction =     0.000323


     Computing stress (Cartesian axis) and pressure

          total   stress  (Ry/bohr**3)                   (kbar)     P=      -78.62
  -0.00052299   0.00001155   0.00000566          -76.93        1.70        0.83
   0.00001155  -0.00050132  -0.00001489            1.70      -73.75       -2.19
   0.00000566  -0.00001489  -0.00057893            0.83       -2.19      -85.16

 
     init_run     :      2.61s CPU      2.75s WALL (       1 calls)
     electrons    :    119.07s CPU    121.75s WALL (       1 calls)
     forces       :      1.53s CPU      1.57s WALL (       1 calls)
     stress       :     13.66s CPU     13.78s WALL (       1 calls)

     Called by init_run:
     wfcinit      :      2.16s CPU      2.25s WALL (       1 calls)
     potinit      :      0.21s CPU      0.22s WALL (       1 calls)
     hinit0       :      0.12s CPU      0.13s WALL (       1 calls)

     Called by electrons:
     c_bands      :     99.94s CPU    101.71s WALL (      21 calls)
     sum_band     :     12.79s CPU     13.29s WALL (      21 calls)
     v_of_rho     :      0.77s CPU      0.79s WALL (      22 calls)
     newd         :      1.31s CPU      1.60s WALL (      22 calls)
     PAW_pot      :      3.41s CPU      3.47s WALL (      22 calls)
     mix_rho      :      1.04s CPU      1.10s WALL (      21 calls)

     Called by c_bands:
     init_us_2    :      1.78s CPU      1.81s WALL (      90 calls)
     init_us_2:cp :      1.78s CPU      1.81s WALL (      90 calls)
     cegterg      :     83.02s CPU     84.67s WALL (      42 calls)

     Called by *egterg:
     cdiaghg      :      5.96s CPU      6.03s WALL (     209 calls)
     h_psi        :     45.36s CPU     46.06s WALL (     211 calls)
     s_psi        :     12.09s CPU     12.18s WALL (     211 calls)
     g_psi        :      0.19s CPU      0.19s WALL (     167 calls)

     Called by h_psi:
     h_psi:calbec :     11.51s CPU     11.59s WALL (     211 calls)
     vloc_psi     :     21.24s CPU     21.60s WALL (     211 calls)
     add_vuspsi   :     12.24s CPU     12.36s WALL (     211 calls)

     General routines
     calbec       :     17.36s CPU     17.49s WALL (     263 calls)
     fft          :      0.37s CPU      0.38s WALL (     267 calls)
     ffts         :      0.52s CPU      0.53s WALL (     441 calls)
     fftw         :     22.20s CPU     22.56s WALL (   46710 calls)
 
     Parallel routines
 
     PWSCF        :   2m17.11s CPU   2m20.74s WALL

 
   This run was terminated on:  16: 9: 8  11May2026            

=------------------------------------------------------------------------------=
   JOB DONE.
=------------------------------------------------------------------------------=
