
     Program PWSCF v.7.1 starts on 11May2026 at 17:33: 1 

     This program is part of the open-source Quantum ESPRESSO suite
     for quantum simulation of materials; please cite
         "P. Giannozzi et al., J. Phys.:Condens. Matter 21 395502 (2009);
         "P. Giannozzi et al., J. Phys.:Condens. Matter 29 465901 (2017);
         "P. Giannozzi et al., J. Chem. Phys. 152 154105 (2020);
          URL http://www.quantum-espresso.org", 
     in publications or presentations arising from this work. More details at
     http://www.quantum-espresso.org/quote

     Parallel version (MPI & OpenMP), running on      32 processor cores
     Number of MPI processes:                32
     Threads/MPI process:                     1

     MPI processes distributed on     1 nodes
     91367 MiB available memory on the printing compute node when the environment starts
 
     Reading input from TiAlN_x025finalrelaxedresult8395.in

     Current dimensions of program PWSCF are:
     Max number of different atomic species (ntypx) = 10
     Max number of k-points (npk) = 150000
     Max angular momentum in pseudopotentials (lmaxx) =  4
     file Al.pbe-n-kjpaw_psl.1.0.0.UPF: wavefunction(s)  3S 3P renormalized
     file N.pbe-n-kjpaw_psl.1.0.0.UPF: wavefunction(s)  2S renormalized
     file Ti.pbe-spn-kjpaw_psl.1.0.0.UPF: wavefunction(s)  3S 3P 3D renormalized
 
     K-points division:     npool     =       4
     R & G space division:  proc/nbgrp/npool/nimage =       8
     Subspace diagonalization in iterative solution of the eigenvalue problem:
     one sub-group per band group will be used
     scalapack distributed-memory algorithm (size of sub-group:  2*  2 procs)

 
     Parallelization info
     --------------------
     sticks:   dense  smooth     PW     G-vecs:    dense   smooth      PW
     Min         601     601    164                31341    31341    4466
     Max         602     602    165                31346    31346    4467
     Sum        4809    4809   1313               250743   250743   35729
 
     Using Slab Decomposition
 


     bravais-lattice index     =            0
     lattice parameter (alat)  =      15.8643  a.u.
     unit-cell volume          =    3992.6267 (a.u.)^3
     number of atoms/cell      =           64
     number of atomic types    =            3
     number of electrons       =       472.00
     number of Kohn-Sham states=          283
     kinetic-energy cutoff     =      60.0000  Ry
     charge density cutoff     =     240.0000  Ry
     scf convergence threshold =      1.0E-08
     mixing beta               =       0.2000
     number of iterations used =            8  local-TF  mixing
     Exchange-correlation= SLA  PW   PBX  PBC
                           (   1   4   3   4   0   0   0)

     celldm(1)=  15.864251  celldm(2)=   0.000000  celldm(3)=   0.000000
     celldm(4)=   0.000000  celldm(5)=   0.000000  celldm(6)=   0.000000

     crystal axes: (cart. coord. in units of alat)
               a(1) = (   1.000000   0.000000   0.000000 )  
               a(2) = (   0.000000   1.000000   0.000000 )  
               a(3) = (   0.000000   0.000000   1.000000 )  

     reciprocal axes: (cart. coord. in units 2 pi/alat)
               b(1) = (  1.000000  0.000000  0.000000 )  
               b(2) = (  0.000000  1.000000  0.000000 )  
               b(3) = (  0.000000  0.000000  1.000000 )  


     PseudoPot. # 1 for Al read from file:
     ../../../pseudo/Al.pbe-n-kjpaw_psl.1.0.0.UPF
     MD5 check sum: 502b6b27b9c6270cab5dd1084b96fa6d
     Pseudo is Projector augmented-wave + core cor, Zval =  3.0
     Generated using &quot;atomic&quot; code by A. Dal Corso  v.6.3
     Shape of augmentation charge: PSQ
     Using radial grid of 1135 points,  6 beta functions with: 
                l(1) =   0
                l(2) =   0
                l(3) =   1
                l(4) =   1
                l(5) =   2
                l(6) =   2
     Q(r) pseudized with 0 coefficients 


     PseudoPot. # 2 for N  read from file:
     ../../../pseudo/N.pbe-n-kjpaw_psl.1.0.0.UPF
     MD5 check sum: 14c48229446f9f2d411169a3abcbc3fa
     Pseudo is Projector augmented-wave + core cor, Zval =  5.0
     Generated using &quot;atomic&quot; code by A. Dal Corso  v.6.3
     Shape of augmentation charge: PSQ
     Using radial grid of 1085 points,  4 beta functions with: 
                l(1) =   0
                l(2) =   0
                l(3) =   1
                l(4) =   1
     Q(r) pseudized with 0 coefficients 


     PseudoPot. # 3 for Ti read from file:
     ../../../pseudo/Ti.pbe-spn-kjpaw_psl.1.0.0.UPF
     MD5 check sum: 01f69b0d8ba4438b2e03ac6ea4af1c0b
     Pseudo is Projector augmented-wave + core cor, Zval = 12.0
     Generated using &quot;atomic&quot; code by A. Dal Corso  v.6.2.2
     Shape of augmentation charge: PSQ
     Using radial grid of 1177 points,  6 beta functions with: 
                l(1) =   0
                l(2) =   0
                l(3) =   1
                l(4) =   1
                l(5) =   2
                l(6) =   2
     Q(r) pseudized with 0 coefficients 


     atomic species   valence    mass     pseudopotential
        Al             3.00    26.98200     Al( 1.00)
        N              5.00    14.00700     N ( 1.00)
        Ti            12.00    47.86700     Ti( 1.00)

     No symmetry found



   Cartesian axes

     site n.     atom                  positions (alat units)
         1           Al  tau(   1) = (   0.0037121  -0.0000815   0.0012767  )
         2           N   tau(   2) = (   0.2431045  -0.0048507  -0.0084987  )
         3           Al  tau(   3) = (   0.0004896   0.2442131   0.2517810  )
         4           N   tau(   4) = (   0.2514444   0.2497161   0.2552356  )
         5           Ti  tau(   5) = (   0.2549824  -0.0075064   0.2507497  )
         6           N   tau(   6) = (   0.0015568   0.0070787   0.2505699  )
         7           Ti  tau(   7) = (   0.2536266   0.2528056   0.0006661  )
         8           N   tau(   8) = (   0.0027025   0.2417619   0.0094331  )
         9           Al  tau(   9) = (   0.0029737   0.0039209   0.4993959  )
        10           N   tau(  10) = (   0.2430837   0.0050839   0.5080056  )
        11           Ti  tau(  11) = (  -0.0080976   0.2531810   0.7513436  )
        12           N   tau(  12) = (   0.2497816   0.2514876   0.7461690  )
        13           Al  tau(  13) = (   0.2452969  -0.0006059   0.7492620  )
        14           N   tau(  14) = (   0.0070904   0.0016659   0.7501191  )
        15           Al  tau(  15) = (   0.2490548   0.2488407   0.5011534  )
        16           N   tau(  16) = (   0.0061536   0.2432455   0.4929248  )
        17           Ti  tau(  17) = (  -0.0027393   0.5004277   0.0027203  )
        18           N   tau(  18) = (   0.2486709   0.5067013  -0.0093471  )
        19           Ti  tau(  19) = (   0.0006192   0.7468226   0.2525667  )
        20           N   tau(  20) = (   0.2505353   0.7501145   0.2388047  )
        21           Ti  tau(  21) = (   0.2470196   0.5072733   0.2513026  )
        22           N   tau(  22) = (   0.0004031   0.4873197   0.2498672  )
        23           Al  tau(  23) = (   0.2477635   0.7512625  -0.0083597  )
        24           N   tau(  24) = (   0.0067408   0.7584198   0.0005917  )
        25           Ti  tau(  25) = (  -0.0009602   0.5028634   0.4974018  )
        26           N   tau(  26) = (   0.2491983   0.4927990   0.5094137  )
        27           Ti  tau(  27) = (  -0.0079207   0.7466881   0.7471103  )
        28           N   tau(  28) = (   0.2498253   0.7484431   0.7539466  )
        29           Al  tau(  29) = (   0.2509028   0.5003689   0.7494613  )
        30           N   tau(  30) = (   0.0080811   0.4992281   0.7502358  )
        31           Ti  tau(  31) = (   0.2508030   0.7473998   0.4961009  )
        32           N   tau(  32) = (   0.0016269   0.7610640   0.4990533  )
        33           Ti  tau(  33) = (   0.5025073  -0.0007401   0.0008560  )
        34           N   tau(  34) = (   0.7613537  -0.0007521  -0.0004760  )
        35           Al  tau(  35) = (   0.4988462   0.2514217   0.2539652  )
        36           N   tau(  36) = (   0.7480531   0.2499937   0.2511865  )
        37           Ti  tau(  37) = (   0.7455332  -0.0056344   0.2488876  )
        38           N   tau(  38) = (   0.4996407   0.0100148   0.2504271  )
        39           Ti  tau(  39) = (   0.7465392   0.2511077  -0.0041780  )
        40           N   tau(  40) = (   0.4974206   0.2492204   0.0104280  )
        41           Ti  tau(  41) = (   0.5016885  -0.0038824   0.4992505  )
        42           N   tau(  42) = (   0.7604650   0.0008179   0.5006558  )
        43           Ti  tau(  43) = (   0.5077760   0.2467421   0.7504723  )
        44           N   tau(  44) = (   0.7500732   0.2510710   0.7491485  )
        45           Ti  tau(  45) = (   0.7481507   0.0002027   0.7511276  )
        46           N   tau(  46) = (   0.4885841   0.0010714   0.7499598  )
        47           Ti  tau(  47) = (   0.7480362   0.2519665   0.5047028  )
        48           N   tau(  48) = (   0.4923655   0.2487182   0.4924814  )
        49           Ti  tau(  49) = (   0.5028562   0.5005211   0.0011390  )
        50           N   tau(  50) = (   0.7513342   0.5009727  -0.0010621  )
        51           Ti  tau(  51) = (   0.4990734   0.7508157   0.2511913  )
        52           N   tau(  52) = (   0.7493692   0.7500178   0.2491860  )
        53           Ti  tau(  53) = (   0.7532724   0.5054369   0.2490654  )
        54           N   tau(  54) = (   0.4997001   0.4904325   0.2503227  )
        55           Ti  tau(  55) = (   0.7490665   0.7491221  -0.0013488  )
        56           N   tau(  56) = (   0.4915958   0.7506981   0.0010852  )
        57           Ti  tau(  57) = (   0.5012343   0.5039884   0.4993640  )
        58           N   tau(  58) = (   0.7509660   0.4993141   0.5013741  )
        59           Ti  tau(  59) = (   0.5072233   0.7530255   0.7485970  )
        60           N   tau(  60) = (   0.7496581   0.7494283   0.7504539  )
        61           Ti  tau(  61) = (   0.7502258   0.5002080   0.7505588  )
        62           N   tau(  62) = (   0.4917331   0.4986763   0.7502680  )
        63           Ti  tau(  63) = (   0.7493996   0.7480776   0.5016625  )
        64           N   tau(  64) = (   0.4987336   0.7507737   0.4987912  )

     number of k points=     8  Gaussian smearing, width (Ry)=  0.0050
                       cart. coord. in units 2pi/alat
        k(    1) = (   0.0000000   0.0000000   0.0000000), wk =   0.2500000
        k(    2) = (   0.0000000   0.0000000  -0.5000000), wk =   0.2500000
        k(    3) = (   0.0000000  -0.5000000  -0.5000000), wk =   0.2500000
        k(    4) = (  -0.5000000  -0.5000000  -0.5000000), wk =   0.2500000
        k(    5) = (  -0.5000000   0.0000000   0.0000000), wk =   0.2500000
        k(    6) = (   0.0000000  -0.5000000   0.0000000), wk =   0.2500000
        k(    7) = (  -0.5000000   0.0000000   0.5000000), wk =   0.2500000
        k(    8) = (  -0.5000000   0.5000000   0.0000000), wk =   0.2500000

     Dense  grid:   250743 G-vectors     FFT dimensions: (  80,  80,  80)

     Estimated max dynamical RAM per process >     232.24 MB

     Estimated total dynamical RAM >       7.08 GB

     Check: negative core charge=   -0.000028

     Initial potential from superposition of free atoms

     starting charge     471.9460, renormalised to     472.0000
     Starting wfcs are  400 randomized atomic wfcs
     Checking if some PAW data can be deallocated... 

     total cpu time spent up to now is        4.7 secs

     Self-consistent Calculation

     iteration #  1     ecut=    60.00 Ry     beta= 0.20
     Davidson diagonalization with overlap
     ethr =  1.00E-02,  avg # of iterations =  2.0

     total cpu time spent up to now is       12.5 secs

     total energy              =   -5637.08461064 Ry
     estimated scf accuracy    <      20.75629220 Ry

     iteration #  2     ecut=    60.00 Ry     beta= 0.20
     Davidson diagonalization with overlap
     ethr =  4.40E-03,  avg # of iterations =  1.0

     total cpu time spent up to now is       18.9 secs

     total energy              =   -5631.92989762 Ry
     estimated scf accuracy    <      11.87065348 Ry

     iteration #  3     ecut=    60.00 Ry     beta= 0.20
     Davidson diagonalization with overlap
     ethr =  2.51E-03,  avg # of iterations =  4.0

     total cpu time spent up to now is       28.0 secs

     total energy              =   -5634.88642807 Ry
     estimated scf accuracy    <       0.93777815 Ry

     iteration #  4     ecut=    60.00 Ry     beta= 0.20
     Davidson diagonalization with overlap
     ethr =  1.99E-04,  avg # of iterations =  3.8

     total cpu time spent up to now is       36.2 secs

     total energy              =   -5634.96888638 Ry
     estimated scf accuracy    <       0.25726647 Ry

     iteration #  5     ecut=    60.00 Ry     beta= 0.20
     Davidson diagonalization with overlap
     ethr =  5.45E-05,  avg # of iterations =  4.5

     total cpu time spent up to now is       45.8 secs

     total energy              =   -5634.89022572 Ry
     estimated scf accuracy    <       0.36012956 Ry

     iteration #  6     ecut=    60.00 Ry     beta= 0.20
     Davidson diagonalization with overlap
     ethr =  5.45E-05,  avg # of iterations =  5.9

     total cpu time spent up to now is       57.2 secs

     total energy              =   -5634.97879151 Ry
     estimated scf accuracy    <       0.17774307 Ry

     iteration #  7     ecut=    60.00 Ry     beta= 0.20
     Davidson diagonalization with overlap
     ethr =  3.77E-05,  avg # of iterations =  1.5

     total cpu time spent up to now is       64.3 secs

     total energy              =   -5634.98613216 Ry
     estimated scf accuracy    <       0.02647916 Ry

     iteration #  8     ecut=    60.00 Ry     beta= 0.20
     Davidson diagonalization with overlap
     ethr =  5.61E-06,  avg # of iterations = 19.1

     total cpu time spent up to now is       85.3 secs

     total energy              =   -5634.99168485 Ry
     estimated scf accuracy    <       0.00145040 Ry

     iteration #  9     ecut=    60.00 Ry     beta= 0.20
     Davidson diagonalization with overlap
     c_bands:  1 eigenvalues not converged
     ethr =  3.07E-07,  avg # of iterations = 14.8

     total cpu time spent up to now is       97.1 secs

     total energy              =   -5634.99151024 Ry
     estimated scf accuracy    <       0.00143001 Ry

     iteration # 10     ecut=    60.00 Ry     beta= 0.20
     Davidson diagonalization with overlap
     ethr =  3.03E-07,  avg # of iterations =  2.1

     total cpu time spent up to now is      104.2 secs

     total energy              =   -5634.99147645 Ry
     estimated scf accuracy    <       0.00028468 Ry

     iteration # 11     ecut=    60.00 Ry     beta= 0.20
     Davidson diagonalization with overlap
     ethr =  6.03E-08,  avg # of iterations =  8.8

     total cpu time spent up to now is      117.8 secs

     total energy              =   -5634.99157400 Ry
     estimated scf accuracy    <       0.00029384 Ry

     iteration # 12     ecut=    60.00 Ry     beta= 0.20
     Davidson diagonalization with overlap
     ethr =  6.03E-08,  avg # of iterations =  1.0

     total cpu time spent up to now is      124.2 secs

     total energy              =   -5634.99155909 Ry
     estimated scf accuracy    <       0.00014164 Ry

     iteration # 13     ecut=    60.00 Ry     beta= 0.20
     Davidson diagonalization with overlap
     ethr =  3.00E-08,  avg # of iterations =  2.0

     total cpu time spent up to now is      131.2 secs

     total energy              =   -5634.99154951 Ry
     estimated scf accuracy    <       0.00005185 Ry

     iteration # 14     ecut=    60.00 Ry     beta= 0.20
     Davidson diagonalization with overlap
     ethr =  1.10E-08,  avg # of iterations =  4.8

     total cpu time spent up to now is      139.9 secs

     total energy              =   -5634.99155699 Ry
     estimated scf accuracy    <       0.00000314 Ry

     iteration # 15     ecut=    60.00 Ry     beta= 0.20
     Davidson diagonalization with overlap
     ethr =  6.65E-10,  avg # of iterations =  5.8

     total cpu time spent up to now is      151.6 secs

     total energy              =   -5634.99155831 Ry
     estimated scf accuracy    <       0.00000228 Ry

     iteration # 16     ecut=    60.00 Ry     beta= 0.20
     Davidson diagonalization with overlap
     ethr =  4.83E-10,  avg # of iterations =  2.0

     total cpu time spent up to now is      158.7 secs

     total energy              =   -5634.99155825 Ry
     estimated scf accuracy    <       0.00000051 Ry

     iteration # 17     ecut=    60.00 Ry     beta= 0.20
     Davidson diagonalization with overlap
     ethr =  1.07E-10,  avg # of iterations =  8.2

     total cpu time spent up to now is      171.3 secs

     total energy              =   -5634.99155824 Ry
     estimated scf accuracy    <       0.00000076 Ry

     iteration # 18     ecut=    60.00 Ry     beta= 0.20
     Davidson diagonalization with overlap
     ethr =  1.07E-10,  avg # of iterations =  5.0

     total cpu time spent up to now is      180.4 secs

     total energy              =   -5634.99155838 Ry
     estimated scf accuracy    <       0.00000009 Ry

     iteration # 19     ecut=    60.00 Ry     beta= 0.20
     Davidson diagonalization with overlap
     ethr =  1.90E-11,  avg # of iterations =  2.2

     total cpu time spent up to now is      187.8 secs

     total energy              =   -5634.99155838 Ry
     estimated scf accuracy    <       0.00000002 Ry

     iteration # 20     ecut=    60.00 Ry     beta= 0.20
     Davidson diagonalization with overlap
     ethr =  3.26E-12,  avg # of iterations =  5.8

     total cpu time spent up to now is      197.7 secs

     total energy              =   -5634.99155838 Ry
     estimated scf accuracy    <       0.00000001 Ry

     iteration # 21     ecut=    60.00 Ry     beta= 0.20
     Davidson diagonalization with overlap
     ethr =  2.79E-12,  avg # of iterations =  4.8

     total cpu time spent up to now is      206.6 secs

     End of self-consistent calculation

          k = 0.0000 0.0000 0.0000 ( 31439 PWs)   bands (ev):

   -41.9361 -41.6594 -41.6341 -41.6197 -41.6074 -41.6009 -41.5990 -41.5824
   -41.5804 -41.5754 -41.5687 -41.5595 -41.5451 -41.5348 -41.5254 -41.5193
   -41.5101 -41.5030 -41.4842 -41.4821 -41.4766 -41.4726 -41.4593 -41.4562
   -18.3408 -18.3184 -18.3106 -18.2521 -18.2447 -18.2395 -18.2370 -18.1735
   -18.1630 -18.1401 -18.1317 -18.1020 -18.0890 -18.0767 -18.0660 -18.0572
   -18.0503 -18.0469 -18.0389 -18.0251 -18.0178 -18.0145 -18.0112 -18.0008
   -17.9902 -17.9859 -17.9792 -17.9757 -17.9678 -17.9587 -17.9514 -17.9257
   -17.9108 -17.8926 -17.8793 -17.8710 -17.8591 -17.8534 -17.8487 -17.8412
   -17.8354 -17.8289 -17.8279 -17.8204 -17.8129 -17.8082 -17.8022 -17.7936
   -17.7776 -17.7650 -17.7619 -17.7525 -17.7483 -17.7469 -17.7364 -17.7209
   -17.7149 -17.7098 -17.7002 -17.6968 -17.6933 -17.6872 -17.6777 -17.6763
   -17.6653 -17.6647 -17.6566 -17.6492 -17.6434 -17.6420 -17.6303 -17.6274
    -1.5546  -0.5012  -0.3939  -0.3449  -0.2116  -0.1456  -0.0779   0.3297
     0.4353   0.4868   0.5105   0.5516   0.5812   0.6160   0.6495   0.6801
     0.6875   0.7612   0.8016   0.8654   0.9257   0.9837   1.0482   1.1023
     1.1520   1.2001   1.2396   1.2585   1.3132   1.3824   1.4005   1.4488
     7.3278   7.3791   7.3857   7.5121   8.4560   8.7882   8.8655   8.8735
     8.9023   8.9668   8.9866   9.0171   9.0302   9.0800   9.1645   9.3081
     9.3431   9.3496   9.3683   9.6177   9.7164   9.7812   9.8285   9.8315
     9.8915   9.9244   9.9896  10.0139  10.0428  10.0688  10.0919  10.1660
    10.2168  10.3497  10.4330  10.4922  10.5623  10.5857  10.6073  10.6207
    10.6235  10.6721  10.6829  10.7111  10.7199  10.7472  10.7781  10.7946
    10.8072  10.8749  10.9223  10.9987  11.0055  11.0664  11.1765  11.1982
    11.2184  11.2372  11.2852  11.3123  11.3421  11.4976  11.5470  11.6325
    11.6689  11.7044  11.7670  11.8558  11.9103  11.9803  11.9873  12.0139
    12.4255  12.4822  12.5215  12.5464  12.6378  12.6637  12.6797  12.7349
    12.7467  12.8847  12.9021  12.9473  12.9956  13.0063  13.0315  13.0591
    13.0808  13.0978  13.1583  13.2053  13.2564  13.3902  13.4859  13.5491
    14.2230  14.2388  14.2461  14.5044  14.5898  14.6115  14.6367  14.7344
    14.8916  15.8598  15.9034  16.0395  16.9204  17.0010  17.0131  17.0462
    17.0816  17.1109  17.1341  17.1511  17.2027  17.2368  17.2666  17.2785
    17.3071  17.3315  17.3841  17.4084  17.4359  17.5125  17.5174  17.5434
    17.5732  17.5973  17.6087  17.6216  17.6607  17.6865  17.6885  17.7224
    17.7473  17.7589  17.7768  17.8344  17.8511  17.8671  17.8825  17.9005
    17.9045  17.9296  17.9457  17.9486  17.9745  17.9804  18.0003  18.0036
    18.0334  18.0391  18.0539

          k = 0.0000 0.0000-0.5000 ( 31464 PWs)   bands (ev):

   -41.9361 -41.6534 -41.6411 -41.6171 -41.6107 -41.6007 -41.6001 -41.5814
   -41.5804 -41.5779 -41.5688 -41.5572 -41.5447 -41.5331 -41.5257 -41.5191
   -41.5112 -41.4999 -41.4834 -41.4802 -41.4783 -41.4745 -41.4598 -41.4568
   -18.3316 -18.3019 -18.2944 -18.2474 -18.2264 -18.2201 -18.1874 -18.1796
   -18.1774 -18.1663 -18.1357 -18.1325 -18.1191 -18.1097 -18.0956 -18.0859
   -18.0790 -18.0698 -18.0527 -18.0445 -18.0266 -18.0245 -18.0179 -18.0067
   -18.0062 -17.9966 -17.9799 -17.9625 -17.9476 -17.9293 -17.9110 -17.9027
   -17.8938 -17.8807 -17.8788 -17.8652 -17.8524 -17.8502 -17.8397 -17.8316
   -17.8259 -17.8207 -17.8124 -17.8049 -17.7927 -17.7871 -17.7803 -17.7751
   -17.7679 -17.7633 -17.7592 -17.7537 -17.7507 -17.7439 -17.7378 -17.7336
   -17.7264 -17.7167 -17.7083 -17.7048 -17.6982 -17.6899 -17.6800 -17.6774
   -17.6744 -17.6729 -17.6628 -17.6615 -17.6494 -17.6470 -17.6418 -17.6318
    -1.1910  -1.1636  -0.1248  -0.0960  -0.0716   0.0181   0.1056   0.1349
     0.1934   0.2645   0.2946   0.3913   0.6021   0.6380   0.7532   0.7907
     0.8291   0.8613   0.8657   0.8836   0.9043   0.9476   1.0179   1.0342
     1.0612   1.0996   1.1267   1.1656   1.3312   1.3670   1.4205   1.5443
     7.5676   7.6244   7.9147   7.9429   8.0319   8.1352   8.6938   8.7422
     8.9218   8.9720   9.1122   9.1447   9.2089   9.2293   9.2579   9.2891
     9.3836   9.4473   9.4635   9.4850   9.5394   9.5656   9.6518   9.7069
     9.7761   9.8077   9.8854   9.9022   9.9093   9.9484  10.0085  10.0455
    10.1708  10.3534  10.5736  10.6197  10.6423  10.6764  10.7452  10.7714
    10.7796  10.8067  10.8445  10.8720  10.9165  10.9394  10.9639  10.9925
    11.0237  11.0357  11.0853  11.0919  11.1414  11.2205  11.2802  11.3075
    11.3776  11.4169  11.4391  11.5116  11.5488  11.6191  11.6787  11.7334
    11.7563  11.7642  11.8045  11.8185  11.8669  11.8840  11.9342  11.9802
    12.0094  12.0617  12.0967  12.1277  12.2056  12.2582  12.2884  12.3232
    12.3569  12.3809  12.5045  12.5658  12.7449  12.7656  12.8025  12.8170
    12.8594  12.9362  13.0255  13.0648  13.6138  13.6245  13.6269  13.6613
    13.8216  13.8510  15.0528  15.0942  15.1722  15.2789  15.4186  15.4707
    15.6302  15.7172  15.7508  15.7623  16.1204  16.1967  16.2664  16.3282
    16.8710  16.9216  17.0504  17.1012  17.1254  17.1848  17.1906  17.2568
    17.2933  17.3153  17.3278  17.3584  17.3710  17.3820  17.4068  17.4493
    17.4887  17.5588  17.5730  17.6012  17.6199  17.6382  17.6543  17.6581
    17.6757  17.7475  17.7773  17.7922  17.8174  17.8382  17.8540  17.8843
    17.8957  17.9291  17.9409  17.9916  18.0058  18.0262  18.0708  18.0928
    18.1151  18.1420  18.1511

          k = 0.0000-0.5000-0.5000 ( 31256 PWs)   bands (ev):

   -41.9361 -41.6512 -41.6386 -41.6249 -41.6105 -41.6025 -41.5936 -41.5841
   -41.5809 -41.5785 -41.5692 -41.5587 -41.5422 -41.5326 -41.5258 -41.5171
   -41.5115 -41.4977 -41.4827 -41.4817 -41.4781 -41.4759 -41.4605 -41.4568
   -18.3229 -18.2994 -18.2893 -18.2373 -18.2273 -18.2066 -18.2009 -18.1814
   -18.1718 -18.1592 -18.1506 -18.1404 -18.1225 -18.1124 -18.1015 -18.0980
   -18.0911 -18.0842 -18.0620 -18.0522 -18.0365 -18.0257 -18.0165 -18.0104
   -17.9967 -17.9812 -17.9643 -17.9471 -17.9349 -17.9341 -17.9051 -17.9013
   -17.8850 -17.8709 -17.8684 -17.8586 -17.8520 -17.8446 -17.8369 -17.8292
   -17.8198 -17.8127 -17.8115 -17.8045 -17.7970 -17.7928 -17.7829 -17.7802
   -17.7724 -17.7685 -17.7677 -17.7606 -17.7596 -17.7531 -17.7513 -17.7408
   -17.7329 -17.7256 -17.7148 -17.7068 -17.7016 -17.6934 -17.6822 -17.6755
   -17.6735 -17.6678 -17.6549 -17.6529 -17.6488 -17.6394 -17.6341 -17.6219
    -0.9670  -0.8920  -0.7142  -0.5691   0.1200   0.3003   0.3045   0.3302
     0.3557   0.4104   0.4498   0.4754   0.5016   0.5093   0.5389   0.5734
     0.6076   0.7210   0.7821   0.8528   0.9144   0.9496   0.9913   1.0194
     1.0467   1.1380   1.1493   1.2213   1.3668   1.4050   1.4623   1.4802
     7.6927   7.8620   7.9535   8.0983   8.3173   8.5351   8.6327   8.7846
     8.8241   8.9196   9.0036   9.0203   9.0944   9.2133   9.2764   9.3014
     9.3385   9.3605   9.3986   9.4238   9.4820   9.5468   9.5602   9.5872
     9.6357   9.7694   9.8554   9.9336  10.0974  10.1196  10.1489  10.1867
    10.2984  10.3345  10.4362  10.4908  10.6974  10.7416  10.7578  10.8061
    10.8455  10.8918  10.9168  10.9372  10.9798  11.0374  11.0541  11.1112
    11.1333  11.1458  11.1955  11.2472  11.2659  11.2939  11.3237  11.3520
    11.3928  11.4634  11.4968  11.5031  11.5403  11.5641  11.5947  11.6407
    11.6727  11.6927  11.7211  11.7633  11.7939  11.8513  11.8990  11.9109
    11.9696  11.9836  12.0204  12.0562  12.0755  12.1138  12.1526  12.1893
    12.2026  12.2349  12.2932  12.4187  12.5476  12.6015  12.6935  12.7647
    12.8553  12.9303  12.9367  13.0151  13.0608  13.1480  13.2413  13.3526
    14.8832  15.0627  15.1881  15.2445  15.4751  15.4957  15.5059  15.6214
    15.6248  15.7690  15.8258  16.0448  16.1281  16.1764  16.2159  16.3177
    16.3714  16.4129  16.5025  16.5130  16.6051  16.6996  16.7399  16.8045
    16.9090  17.1229  17.1783  17.2657  17.2679  17.3197  17.3513  17.3731
    17.3949  17.4493  17.4871  17.5112  17.5234  17.5962  17.6090  17.7125
    17.7414  17.7740  17.8117  17.8320  17.8568  17.8933  17.9157  17.9425
    17.9681  18.0096  18.0566  18.1083  18.1266  18.1716  18.1838  18.2398
    18.2622  18.2772  18.3132

          k =-0.5000-0.5000-0.5000 ( 31144 PWs)   bands (ev):

   -41.9361 -41.6513 -41.6372 -41.6232 -41.6108 -41.6033 -41.5959 -41.5891
   -41.5810 -41.5761 -41.5671 -41.5588 -41.5413 -41.5327 -41.5257 -41.5163
   -41.5114 -41.4976 -41.4825 -41.4816 -41.4780 -41.4742 -41.4611 -41.4585
   -18.3252 -18.2930 -18.2821 -18.2463 -18.2257 -18.2090 -18.2053 -18.1863
   -18.1699 -18.1528 -18.1496 -18.1380 -18.1153 -18.1098 -18.0998 -18.0980
   -18.0891 -18.0790 -18.0711 -18.0547 -18.0280 -18.0210 -18.0153 -18.0052
   -18.0023 -17.9782 -17.9698 -17.9597 -17.9468 -17.9246 -17.9173 -17.9086
   -17.8882 -17.8816 -17.8685 -17.8598 -17.8478 -17.8366 -17.8306 -17.8170
   -17.8142 -17.8114 -17.8073 -17.8020 -17.7979 -17.7908 -17.7880 -17.7815
   -17.7755 -17.7733 -17.7684 -17.7645 -17.7588 -17.7568 -17.7548 -17.7433
   -17.7390 -17.7303 -17.7153 -17.7111 -17.7065 -17.6949 -17.6872 -17.6791
   -17.6598 -17.6546 -17.6515 -17.6497 -17.6408 -17.6395 -17.6341 -17.6226
    -0.7802  -0.7196  -0.4897  -0.4204  -0.2774  -0.1762  -0.1003  -0.0922
     0.5314   0.5362   0.5847   0.6321   0.6506   0.6577   0.6729   0.6936
     0.7029   0.7245   0.7421   0.7609   0.8151   0.8867   0.9778   1.0655
     1.1102   1.1454   1.1859   1.2327   1.2719   1.3564   1.3897   1.4108
     8.0034   8.0396   8.0704   8.1515   8.3166   8.4412   8.7495   8.8597
     8.9047   8.9135   8.9792   9.0118   9.0280   9.0750   9.1138   9.1959
     9.2860   9.3143   9.3976   9.4607   9.4758   9.5496   9.6325   9.6748
    10.0117  10.1006  10.1762  10.2514  10.3156  10.3510  10.3701  10.3977
    10.4425  10.4904  10.5057  10.5289  10.5815  10.6080  10.6212  10.6703
    10.6990  10.7521  10.7605  10.8019  10.8506  10.8845  10.9028  10.9141
    10.9535  10.9752  11.0194  11.0452  11.0870  11.1107  11.1664  11.2272
    11.4005  11.4293  11.4575  11.5030  11.5184  11.5736  11.5958  11.6473
    11.6616  11.6813  11.6873  11.7322  11.7766  11.7870  11.8200  11.8830
    11.9061  11.9425  11.9777  12.0459  12.0861  12.1195  12.1877  12.2711
    12.2813  12.3786  12.4528  12.4833  12.5356  12.5836  12.6086  12.6452
    12.7023  12.7414  12.8555  13.0114  13.0377  13.1379  13.1808  13.3087
    15.4408  15.4682  15.5288  15.5512  15.5597  15.6232  15.6743  15.6801
    15.7028  15.7668  15.8362  15.8817  15.9018  16.0026  16.1606  16.3008
    16.3181  16.3828  16.4055  16.4608  16.5007  16.5596  16.5994  16.6313
    16.6700  16.6947  16.7230  16.7520  16.7890  16.8140  16.8475  17.0714
    17.2180  17.2606  17.3002  17.3304  17.3640  17.4147  17.4381  17.4861
    17.5270  17.7510  17.8323  17.8928  17.9127  18.0316  18.0530  18.0822
    18.2487  18.2791  18.3074  18.3142  18.3435  18.3484  18.3570  18.3634
    18.3853  18.3963  18.4123

          k =-0.5000 0.0000 0.0000 ( 31464 PWs)   bands (ev):

   -41.9361 -41.6577 -41.6353 -41.6203 -41.6081 -41.6010 -41.5986 -41.5866
   -41.5775 -41.5753 -41.5674 -41.5606 -41.5443 -41.5348 -41.5254 -41.5185
   -41.5103 -41.5028 -41.4848 -41.4817 -41.4753 -41.4714 -41.4609 -41.4572
   -18.3286 -18.2966 -18.2885 -18.2769 -18.2558 -18.2213 -18.2173 -18.1784
   -18.1658 -18.1489 -18.1338 -18.1229 -18.1071 -18.0989 -18.0899 -18.0769
   -18.0687 -18.0542 -18.0443 -18.0352 -18.0230 -18.0099 -18.0064 -17.9926
   -17.9907 -17.9847 -17.9810 -17.9721 -17.9537 -17.9482 -17.9279 -17.9215
   -17.9011 -17.8908 -17.8881 -17.8667 -17.8625 -17.8458 -17.8423 -17.8392
   -17.8313 -17.8234 -17.8133 -17.8093 -17.8023 -17.8003 -17.7915 -17.7821
   -17.7791 -17.7734 -17.7620 -17.7573 -17.7476 -17.7446 -17.7348 -17.7265
   -17.7161 -17.7091 -17.7007 -17.6923 -17.6869 -17.6845 -17.6813 -17.6802
   -17.6748 -17.6656 -17.6619 -17.6577 -17.6536 -17.6438 -17.6388 -17.6285
    -1.3108  -0.9593  -0.3371  -0.1096  -0.0721   0.0332   0.1562   0.1853
     0.2423   0.2579   0.3178   0.4038   0.5094   0.6284   0.7229   0.7715
     0.8154   0.8424   0.8618   0.8785   0.9416   0.9711   0.9787   1.0137
     1.0979   1.1410   1.1743   1.2929   1.3370   1.3699   1.4039   1.4481
     7.6799   7.7138   7.7669   7.8917   7.9519   8.3750   8.4258   8.6058
     8.7314   9.0022   9.0216   9.0675   9.1439   9.2168   9.2702   9.3464
     9.4420   9.4718   9.5453   9.6260   9.6375   9.6693   9.7203   9.7733
     9.8061   9.8249   9.8920   9.8986   9.9962  10.0423  10.0727  10.1177
    10.2309  10.2847  10.5009  10.5582  10.5902  10.6450  10.6706  10.6830
    10.6963  10.7219  10.7273  10.7770  10.8577  10.8904  10.9272  10.9816
    11.0100  11.0399  11.0918  11.1465  11.2453  11.2602  11.2779  11.3558
    11.3993  11.5092  11.5436  11.6332  11.6502  11.6769  11.6921  11.7351
    11.7685  11.8291  11.8490  11.8774  11.9250  11.9360  11.9733  12.0042
    12.0102  12.0581  12.0721  12.0894  12.1185  12.1252  12.2100  12.2422
    12.3684  12.4446  12.5273  12.5789  12.6242  12.7019  12.7860  12.8385
    12.9440  12.9596  12.9799  13.0253  13.4558  13.5505  13.5606  13.6379
    13.6953  14.2332  14.7659  14.8175  15.3662  15.4140  15.5163  15.5388
    15.5863  15.6751  15.7905  15.8392  16.2330  16.2720  16.3832  16.3966
    16.7108  16.7866  17.0486  17.0602  17.0758  17.1319  17.1671  17.1854
    17.1945  17.2582  17.2735  17.2949  17.3726  17.4485  17.4553  17.5039
    17.5137  17.5290  17.5604  17.5658  17.5878  17.6058  17.6642  17.6813
    17.7313  17.7501  17.7808  17.8000  17.8135  17.8472  17.8692  17.8876
    17.9051  17.9234  17.9510  17.9589  18.0066  18.0232  18.0370  18.0554
    18.0903  18.1045  18.1604

          k = 0.0000-0.5000 0.0000 ( 31464 PWs)   bands (ev):

   -41.9361 -41.6556 -41.6354 -41.6262 -41.6061 -41.6025 -41.5945 -41.5838
   -41.5798 -41.5753 -41.5713 -41.5590 -41.5433 -41.5351 -41.5258 -41.5169
   -41.5122 -41.4996 -41.4834 -41.4811 -41.4782 -41.4745 -41.4599 -41.4563
   -18.3242 -18.3040 -18.2959 -18.2523 -18.2332 -18.2207 -18.2152 -18.1836
   -18.1695 -18.1507 -18.1474 -18.1321 -18.1241 -18.1061 -18.0900 -18.0773
   -18.0765 -18.0676 -18.0533 -18.0436 -18.0276 -18.0205 -18.0015 -17.9915
   -17.9867 -17.9787 -17.9658 -17.9583 -17.9497 -17.9329 -17.9291 -17.9174
   -17.8914 -17.8897 -17.8763 -17.8701 -17.8659 -17.8570 -17.8458 -17.8373
   -17.8271 -17.8216 -17.8158 -17.8053 -17.8021 -17.7896 -17.7884 -17.7834
   -17.7752 -17.7686 -17.7594 -17.7574 -17.7456 -17.7349 -17.7304 -17.7234
   -17.7223 -17.7176 -17.7072 -17.7063 -17.6986 -17.6965 -17.6852 -17.6785
   -17.6688 -17.6628 -17.6584 -17.6577 -17.6495 -17.6465 -17.6402 -17.6281
    -1.2651  -1.0635  -0.1478  -0.1006  -0.0744   0.0148   0.0797   0.1592
     0.1767   0.2384   0.2862   0.4495   0.5318   0.6300   0.7266   0.7921
     0.8031   0.8486   0.9153   0.9247   0.9413   0.9795   0.9935   1.0032
     1.0766   1.1181   1.1590   1.2817   1.3054   1.3651   1.3998   1.4530
     7.6450   7.6655   7.7833   7.8936   8.0650   8.2979   8.5032   8.5985
     8.9486   9.0499   9.0770   9.1311   9.1639   9.2041   9.2757   9.3208
     9.3554   9.4343   9.4994   9.5264   9.5614   9.6385   9.6903   9.7346
     9.7607   9.8015   9.8378   9.8698   9.9321   9.9874  10.0328  10.0564
    10.1437  10.4679  10.5320  10.5362  10.6329  10.6446  10.6655  10.7276
    10.7516  10.7811  10.8001  10.8452  10.8771  10.9030  10.9477  10.9614
    11.0423  11.0774  11.1145  11.1438  11.1962  11.2355  11.3237  11.3368
    11.3646  11.4820  11.5245  11.5888  11.6209  11.6519  11.6701  11.7112
    11.7833  11.8021  11.8474  11.8838  11.8992  11.9265  11.9687  11.9853
    12.0434  12.0875  12.1156  12.1157  12.1457  12.1695  12.2630  12.2810
    12.3439  12.3621  12.4628  12.5886  12.6693  12.8022  12.8346  12.8479
    12.8909  12.9036  12.9239  12.9885  13.5364  13.5499  13.6089  13.6367
    13.7079  14.0951  14.8496  14.9412  15.3051  15.3217  15.3998  15.5761
    15.6236  15.6718  15.7369  15.8627  16.1129  16.1706  16.4175  16.4648
    16.7827  16.8123  17.0195  17.1463  17.1675  17.1810  17.2266  17.2328
    17.2415  17.2616  17.3195  17.3442  17.3879  17.4407  17.4544  17.4797
    17.5074  17.5401  17.5526  17.5720  17.6158  17.6466  17.6638  17.6688
    17.6844  17.7212  17.7407  17.7641  17.7716  17.8353  17.8574  17.8684
    17.8969  17.9441  17.9730  17.9807  18.0168  18.0226  18.0354  18.0577
    18.0655  18.0917  18.1344

          k =-0.5000 0.0000 0.5000 ( 31256 PWs)   bands (ev):

   -41.9361 -41.6531 -41.6388 -41.6204 -41.6105 -41.6008 -41.5985 -41.5876
   -41.5799 -41.5760 -41.5658 -41.5588 -41.5441 -41.5331 -41.5255 -41.5183
   -41.5108 -41.4998 -41.4834 -41.4797 -41.4781 -41.4732 -41.4603 -41.4585
   -18.3238 -18.2950 -18.2826 -18.2468 -18.2322 -18.2069 -18.1992 -18.1927
   -18.1667 -18.1585 -18.1428 -18.1308 -18.1233 -18.1167 -18.1067 -18.0987
   -18.0955 -18.0825 -18.0624 -18.0441 -18.0378 -18.0233 -18.0137 -17.9961
   -17.9954 -17.9856 -17.9735 -17.9547 -17.9443 -17.9235 -17.9175 -17.8921
   -17.8840 -17.8831 -17.8768 -17.8630 -17.8548 -17.8490 -17.8403 -17.8243
   -17.8153 -17.8112 -17.8063 -17.7960 -17.7953 -17.7915 -17.7868 -17.7779
   -17.7763 -17.7687 -17.7644 -17.7606 -17.7512 -17.7476 -17.7403 -17.7373
   -17.7256 -17.7214 -17.7181 -17.7135 -17.7010 -17.6937 -17.6863 -17.6783
   -17.6739 -17.6691 -17.6640 -17.6505 -17.6482 -17.6424 -17.6339 -17.6246
    -0.9962  -0.9130  -0.6438  -0.5210   0.1141   0.1366   0.2820   0.3315
     0.3672   0.3805   0.4813   0.4902   0.5021   0.5243   0.5818   0.6088
     0.6379   0.6957   0.7670   0.8552   0.8717   0.9085   0.9428   1.0313
     1.1330   1.1561   1.1944   1.2621   1.3173   1.3701   1.4606   1.5117
     7.7379   7.8349   7.9531   8.1655   8.3052   8.3588   8.6973   8.7315
     8.8252   8.9446   8.9706   9.0426   9.0660   9.1083   9.1325   9.2880
     9.3224   9.3342   9.3707   9.3982   9.5241   9.5486   9.6013   9.7094
     9.7358   9.8302   9.8769   9.9713  10.1329  10.1620  10.2050  10.2723
    10.3087  10.3946  10.5315  10.5457  10.6024  10.6977  10.7683  10.7999
    10.8353  10.8404  10.8655  10.9253  10.9489  10.9977  11.0158  11.0659
    11.0794  11.1188  11.2049  11.2872  11.2925  11.2992  11.3463  11.3812
    11.4194  11.4681  11.4954  11.5123  11.5418  11.5650  11.5982  11.6586
    11.7075  11.7168  11.7239  11.7557  11.8113  11.8823  11.8847  11.9063
    11.9368  11.9472  12.0055  12.0226  12.0611  12.0823  12.1215  12.1480
    12.1767  12.2024  12.3330  12.5257  12.5633  12.6229  12.7556  12.7964
    12.8618  12.8724  12.9454  12.9755  13.0343  13.0488  13.2004  13.3644
    14.8350  15.0887  15.1846  15.3952  15.4072  15.4616  15.5354  15.5761
    15.6685  15.7878  15.9080  15.9350  16.0919  16.1498  16.2446  16.2763
    16.3691  16.4263  16.4511  16.5107  16.6238  16.7094  16.8286  16.8999
    16.9865  17.1014  17.1467  17.2923  17.3227  17.3344  17.3595  17.3881
    17.4107  17.4356  17.4810  17.4856  17.5656  17.5689  17.6112  17.6685
    17.6879  17.7102  17.7784  17.8224  17.8280  17.8807  17.8910  17.9394
    17.9855  17.9977  18.0263  18.0983  18.1398  18.1585  18.1802  18.2181
    18.2349  18.2791  18.2916

          k =-0.5000 0.5000 0.0000 ( 31256 PWs)   bands (ev):

   -41.9361 -41.6544 -41.6346 -41.6266 -41.6065 -41.6022 -41.5943 -41.5918
   -41.5777 -41.5752 -41.5679 -41.5590 -41.5425 -41.5351 -41.5257 -41.5166
   -41.5122 -41.4993 -41.4836 -41.4810 -41.4777 -41.4727 -41.4610 -41.4575
   -18.3278 -18.2959 -18.2831 -18.2561 -18.2118 -18.2074 -18.1909 -18.1782
   -18.1684 -18.1566 -18.1438 -18.1361 -18.1289 -18.1245 -18.1137 -18.0963
   -18.0834 -18.0795 -18.0754 -18.0593 -18.0486 -18.0308 -18.0102 -17.9961
   -17.9944 -17.9870 -17.9637 -17.9542 -17.9441 -17.9176 -17.8965 -17.8905
   -17.8809 -17.8770 -17.8732 -17.8667 -17.8578 -17.8516 -17.8480 -17.8377
   -17.8312 -17.8269 -17.8138 -17.8012 -17.7953 -17.7856 -17.7785 -17.7747
   -17.7737 -17.7654 -17.7631 -17.7508 -17.7474 -17.7432 -17.7389 -17.7321
   -17.7200 -17.7167 -17.7075 -17.7053 -17.7005 -17.6917 -17.6839 -17.6805
   -17.6751 -17.6684 -17.6663 -17.6597 -17.6575 -17.6510 -17.6341 -17.6283
    -1.0549  -0.8340  -0.6573  -0.4675   0.0687   0.0935   0.2520   0.3034
     0.3351   0.4367   0.4465   0.4657   0.5181   0.5586   0.5770   0.6124
     0.6138   0.6701   0.7490   0.8706   0.9372   0.9578   0.9725   1.0607
     1.0943   1.2114   1.2376   1.2753   1.3075   1.3679   1.4091   1.4564
     7.7425   7.8767   8.0592   8.0995   8.3559   8.3803   8.5978   8.7551
     8.7972   8.8322   8.9154   8.9601   9.0181   9.0673   9.1093   9.2249
     9.2614   9.3567   9.3835   9.4304   9.5530   9.5636   9.6486   9.7152
     9.8336   9.8632   9.9235   9.9761  10.0964  10.1535  10.1746  10.3492
    10.3864  10.4132  10.4760  10.5898  10.6169  10.6597  10.6938  10.7799
    10.8185  10.8368  10.8542  10.8904  10.9477  10.9902  11.0545  11.1042
    11.1135  11.1385  11.2370  11.2739  11.2874  11.3504  11.3664  11.4065
    11.4462  11.4583  11.4882  11.4934  11.5611  11.6290  11.6387  11.6796
    11.7004  11.7197  11.7476  11.7859  11.8240  11.8460  11.8741  11.8983
    11.9607  11.9693  12.0227  12.0348  12.0868  12.1129  12.1541  12.1658
    12.2192  12.2817  12.3569  12.4426  12.5946  12.6541  12.6717  12.7218
    12.8171  12.8439  12.8895  12.9274  12.9653  13.0067  13.1670  13.2828
    14.9226  15.0205  15.0786  15.2045  15.3238  15.5230  15.5418  15.6815
    15.7214  15.9259  15.9366  15.9908  16.0465  16.1065  16.2010  16.2476
    16.3254  16.4166  16.5130  16.5991  16.6166  16.6730  16.9091  16.9157
    17.1597  17.2165  17.2370  17.2808  17.3029  17.3445  17.3559  17.3716
    17.3814  17.4031  17.4498  17.4862  17.5689  17.5856  17.6241  17.6529
    17.6583  17.7119  17.7132  17.8245  17.8528  17.8755  17.8814  17.9050
    17.9296  17.9669  17.9937  18.0241  18.0882  18.1049  18.1695  18.2031
    18.2357  18.2702  18.3024

     the Fermi energy is    16.0132 ev

!    total energy              =   -5634.99155838 Ry
     total all-electron energy =    -48379.845182 Ry
     estimated scf accuracy    <          5.4E-09 Ry
     smearing contrib. (-TS)   =      -0.00213398 Ry
     internal energy E=F+TS    =   -5634.98942439 Ry

     The total energy is F=E-TS. E is the sum of the following terms:
     one-electron contribution =    -911.82643711 Ry
     hartree contribution      =     756.27996896 Ry
     xc contribution           =    -655.73926926 Ry
     ewald contribution        =   -2723.29789901 Ry
     one-center paw contrib.   =   -2100.40578797 Ry

     convergence has been achieved in  21 iterations
 
     init_run     :      3.46s CPU      3.72s WALL (       1 calls)
     electrons    :    197.86s CPU    201.96s WALL (       1 calls)

     Called by init_run:
     wfcinit      :      3.01s CPU      3.13s WALL (       1 calls)
     potinit      :      0.21s CPU      0.23s WALL (       1 calls)
     hinit0       :      0.12s CPU      0.22s WALL (       1 calls)

     Called by electrons:
     c_bands      :    173.91s CPU    176.98s WALL (      21 calls)
     sum_band     :     17.49s CPU     18.05s WALL (      21 calls)
     v_of_rho     :      0.78s CPU      0.80s WALL (      22 calls)
     newd         :      1.32s CPU      1.59s WALL (      22 calls)
     PAW_pot      :      3.55s CPU      3.61s WALL (      22 calls)
     mix_rho      :      1.01s CPU      1.09s WALL (      21 calls)

     Called by c_bands:
     init_us_2    :      1.69s CPU      1.72s WALL (      86 calls)
     init_us_2:cp :      1.69s CPU      1.72s WALL (      86 calls)
     cegterg      :    155.23s CPU    158.11s WALL (      43 calls)

     Called by *egterg:
     cdiaghg      :     20.98s CPU     21.38s WALL (     269 calls)
     h_psi        :     71.05s CPU     72.13s WALL (     271 calls)
     s_psi        :     18.11s CPU     18.27s WALL (     271 calls)
     g_psi        :      0.30s CPU      0.31s WALL (     226 calls)

     Called by h_psi:
     h_psi:calbec :     17.90s CPU     18.04s WALL (     271 calls)
     vloc_psi     :     34.39s CPU     34.94s WALL (     271 calls)
     add_vuspsi   :     18.25s CPU     18.45s WALL (     271 calls)

     General routines
     calbec       :     24.51s CPU     24.71s WALL (     313 calls)
     fft          :      0.36s CPU      0.46s WALL (     242 calls)
     ffts         :      0.50s CPU      0.51s WALL (     437 calls)
     fftw         :     35.17s CPU     35.72s WALL (   73648 calls)
 
     Parallel routines
 
     PWSCF        :   3m21.56s CPU   3m26.75s WALL

 
   This run was terminated on:  17:36:27  11May2026            

=------------------------------------------------------------------------------=
   JOB DONE.
=------------------------------------------------------------------------------=
