
     Program PWSCF v.7.1 starts on 11May2026 at 17:36: 9 

     This program is part of the open-source Quantum ESPRESSO suite
     for quantum simulation of materials; please cite
         "P. Giannozzi et al., J. Phys.:Condens. Matter 21 395502 (2009);
         "P. Giannozzi et al., J. Phys.:Condens. Matter 29 465901 (2017);
         "P. Giannozzi et al., J. Chem. Phys. 152 154105 (2020);
          URL http://www.quantum-espresso.org", 
     in publications or presentations arising from this work. More details at
     http://www.quantum-espresso.org/quote

     Parallel version (MPI & OpenMP), running on      32 processor cores
     Number of MPI processes:                32
     Threads/MPI process:                     1

     MPI processes distributed on     1 nodes
     91300 MiB available memory on the printing compute node when the environment starts
 
     Reading input from TiAlN_x025finalrelaxedresult831105.in

     Current dimensions of program PWSCF are:
     Max number of different atomic species (ntypx) = 10
     Max number of k-points (npk) = 150000
     Max angular momentum in pseudopotentials (lmaxx) =  4
     file Al.pbe-n-kjpaw_psl.1.0.0.UPF: wavefunction(s)  3S 3P renormalized
     file N.pbe-n-kjpaw_psl.1.0.0.UPF: wavefunction(s)  2S renormalized
     file Ti.pbe-spn-kjpaw_psl.1.0.0.UPF: wavefunction(s)  3S 3P 3D renormalized
 
     K-points division:     npool     =       4
     R & G space division:  proc/nbgrp/npool/nimage =       8
     Subspace diagonalization in iterative solution of the eigenvalue problem:
     one sub-group per band group will be used
     scalapack distributed-memory algorithm (size of sub-group:  2*  2 procs)

 
     Parallelization info
     --------------------
     sticks:   dense  smooth     PW     G-vecs:    dense   smooth      PW
     Min         588     588    161                30428    30428    4336
     Max         589     589    162                30433    30433    4339
     Sum        4709    4709   1289               243441   243441   34697
 
     Using Slab Decomposition
 


     bravais-lattice index     =            0
     lattice parameter (alat)  =      15.7056  a.u.
     unit-cell volume          =    3874.0417 (a.u.)^3
     number of atoms/cell      =           64
     number of atomic types    =            3
     number of electrons       =       472.00
     number of Kohn-Sham states=          283
     kinetic-energy cutoff     =      60.0000  Ry
     charge density cutoff     =     240.0000  Ry
     scf convergence threshold =      1.0E-08
     mixing beta               =       0.2000
     number of iterations used =            8  local-TF  mixing
     Exchange-correlation= SLA  PW   PBX  PBC
                           (   1   4   3   4   0   0   0)

     celldm(1)=  15.705608  celldm(2)=   0.000000  celldm(3)=   0.000000
     celldm(4)=   0.000000  celldm(5)=   0.000000  celldm(6)=   0.000000

     crystal axes: (cart. coord. in units of alat)
               a(1) = (   1.000000   0.000000   0.000000 )  
               a(2) = (   0.000000   1.000000   0.000000 )  
               a(3) = (   0.000000   0.000000   1.000000 )  

     reciprocal axes: (cart. coord. in units 2 pi/alat)
               b(1) = (  1.000000  0.000000  0.000000 )  
               b(2) = (  0.000000  1.000000  0.000000 )  
               b(3) = (  0.000000  0.000000  1.000000 )  


     PseudoPot. # 1 for Al read from file:
     ../../../pseudo/Al.pbe-n-kjpaw_psl.1.0.0.UPF
     MD5 check sum: 502b6b27b9c6270cab5dd1084b96fa6d
     Pseudo is Projector augmented-wave + core cor, Zval =  3.0
     Generated using &quot;atomic&quot; code by A. Dal Corso  v.6.3
     Shape of augmentation charge: PSQ
     Using radial grid of 1135 points,  6 beta functions with: 
                l(1) =   0
                l(2) =   0
                l(3) =   1
                l(4) =   1
                l(5) =   2
                l(6) =   2
     Q(r) pseudized with 0 coefficients 


     PseudoPot. # 2 for N  read from file:
     ../../../pseudo/N.pbe-n-kjpaw_psl.1.0.0.UPF
     MD5 check sum: 14c48229446f9f2d411169a3abcbc3fa
     Pseudo is Projector augmented-wave + core cor, Zval =  5.0
     Generated using &quot;atomic&quot; code by A. Dal Corso  v.6.3
     Shape of augmentation charge: PSQ
     Using radial grid of 1085 points,  4 beta functions with: 
                l(1) =   0
                l(2) =   0
                l(3) =   1
                l(4) =   1
     Q(r) pseudized with 0 coefficients 


     PseudoPot. # 3 for Ti read from file:
     ../../../pseudo/Ti.pbe-spn-kjpaw_psl.1.0.0.UPF
     MD5 check sum: 01f69b0d8ba4438b2e03ac6ea4af1c0b
     Pseudo is Projector augmented-wave + core cor, Zval = 12.0
     Generated using &quot;atomic&quot; code by A. Dal Corso  v.6.2.2
     Shape of augmentation charge: PSQ
     Using radial grid of 1177 points,  6 beta functions with: 
                l(1) =   0
                l(2) =   0
                l(3) =   1
                l(4) =   1
                l(5) =   2
                l(6) =   2
     Q(r) pseudized with 0 coefficients 


     atomic species   valence    mass     pseudopotential
        Al             3.00    26.98200     Al( 1.00)
        N              5.00    14.00700     N ( 1.00)
        Ti            12.00    47.86700     Ti( 1.00)

     No symmetry found



   Cartesian axes

     site n.     atom                  positions (alat units)
         1           Al  tau(   1) = (   0.0037496  -0.0000823   0.0012896  )
         2           N   tau(   2) = (   0.2455601  -0.0048997  -0.0085845  )
         3           Al  tau(   3) = (   0.0004946   0.2466799   0.2543243  )
         4           N   tau(   4) = (   0.2539843   0.2522385   0.2578137  )
         5           Ti  tau(   5) = (   0.2575579  -0.0075823   0.2532825  )
         6           N   tau(   6) = (   0.0015726   0.0071502   0.2531009  )
         7           Ti  tau(   7) = (   0.2561885   0.2553592   0.0006729  )
         8           N   tau(   8) = (   0.0027298   0.2442040   0.0095283  )
         9           Al  tau(   9) = (   0.0030037   0.0039605   0.5044403  )
        10           N   tau(  10) = (   0.2455390   0.0051352   0.5131370  )
        11           Ti  tau(  11) = (  -0.0081794   0.2557384   0.7589330  )
        12           N   tau(  12) = (   0.2523047   0.2540278   0.7537060  )
        13           Al  tau(  13) = (   0.2477746  -0.0006120   0.7568303  )
        14           N   tau(  14) = (   0.0071621   0.0016827   0.7576961  )
        15           Al  tau(  15) = (   0.2515705   0.2513542   0.5062156  )
        16           N   tau(  16) = (   0.0062157   0.2457026   0.4979039  )
        17           Ti  tau(  17) = (  -0.0027670   0.5054825   0.0027478  )
        18           N   tau(  18) = (   0.2511827   0.5118195  -0.0094415  )
        19           Ti  tau(  19) = (   0.0006254   0.7543663   0.2551179  )
        20           N   tau(  20) = (   0.2530659   0.7576914   0.2412169  )
        21           Ti  tau(  21) = (   0.2495147   0.5123972   0.2538410  )
        22           N   tau(  22) = (   0.0004071   0.4922421   0.2523911  )
        23           Al  tau(  23) = (   0.2502662   0.7588510  -0.0084441  )
        24           N   tau(  24) = (   0.0068089   0.7660806   0.0005977  )
        25           Ti  tau(  25) = (  -0.0009699   0.5079428   0.5024260  )
        26           N   tau(  26) = (   0.2517154   0.4977768   0.5145593  )
        27           Ti  tau(  27) = (  -0.0080007   0.7542304   0.7546569  )
        28           N   tau(  28) = (   0.2523488   0.7560031   0.7615622  )
        29           Al  tau(  29) = (   0.2534371   0.5054231   0.7570316  )
        30           N   tau(  30) = (   0.0081627   0.5042708   0.7578139  )
        31           Ti  tau(  31) = (   0.2533363   0.7549493   0.5011120  )
        32           N   tau(  32) = (   0.0016433   0.7687515   0.5040942  )
        33           Ti  tau(  33) = (   0.5075832  -0.0007476   0.0008647  )
        34           N   tau(  34) = (   0.7690441  -0.0007597  -0.0004808  )
        35           Al  tau(  35) = (   0.5038850   0.2539613   0.2565305  )
        36           N   tau(  36) = (   0.7556092   0.2525189   0.2537238  )
        37           Ti  tau(  37) = (   0.7530638  -0.0056913   0.2514016  )
        38           N   tau(  38) = (   0.5046875   0.0101160   0.2529566  )
        39           Ti  tau(  39) = (   0.7540800   0.2536442  -0.0042202  )
        40           N   tau(  40) = (   0.5024450   0.2517378   0.0105333  )
        41           Ti  tau(  41) = (   0.5067561  -0.0039216   0.5042934  )
        42           N   tau(  42) = (   0.7681465   0.0008261   0.5057130  )
        43           Ti  tau(  43) = (   0.5129050   0.2492344   0.7580528  )
        44           N   tau(  44) = (   0.7576497   0.2536070   0.7567157  )
        45           Ti  tau(  45) = (   0.7557078   0.0002047   0.7587147  )
        46           N   tau(  46) = (   0.4935192   0.0010822   0.7575352  )
        47           Ti  tau(  47) = (   0.7555921   0.2545117   0.5098008  )
        48           N   tau(  48) = (   0.4973388   0.2512305   0.4974560  )
        49           Ti  tau(  49) = (   0.5079356   0.5055769   0.0011505  )
        50           N   tau(  50) = (   0.7589234   0.5060330  -0.0010729  )
        51           Ti  tau(  51) = (   0.5041146   0.7583997   0.2537286  )
        52           N   tau(  52) = (   0.7569386   0.7575938   0.2517030  )
        53           Ti  tau(  53) = (   0.7608812   0.5105424   0.2515812  )
        54           N   tau(  54) = (   0.5047476   0.4953864   0.2528512  )
        55           Ti  tau(  55) = (   0.7566328   0.7566890  -0.0013624  )
        56           N   tau(  56) = (   0.4965614   0.7582809   0.0010962  )
        57           Ti  tau(  57) = (   0.5062973   0.5090792   0.5044080  )
        58           N   tau(  58) = (   0.7585515   0.5043577   0.5064385  )
        59           Ti  tau(  59) = (   0.5123467   0.7606318   0.7561586  )
        60           N   tau(  60) = (   0.7572304   0.7569983   0.7580342  )
        61           Ti  tau(  61) = (   0.7578038   0.5052606   0.7581402  )
        62           N   tau(  62) = (   0.4967001   0.5037135   0.7578465  )
        63           Ti  tau(  63) = (   0.7569693   0.7556339   0.5067298  )
        64           N   tau(  64) = (   0.5037713   0.7583572   0.5038295  )

     number of k points=     8  Gaussian smearing, width (Ry)=  0.0050
                       cart. coord. in units 2pi/alat
        k(    1) = (   0.0000000   0.0000000   0.0000000), wk =   0.2500000
        k(    2) = (   0.0000000   0.0000000  -0.5000000), wk =   0.2500000
        k(    3) = (   0.0000000  -0.5000000  -0.5000000), wk =   0.2500000
        k(    4) = (  -0.5000000  -0.5000000  -0.5000000), wk =   0.2500000
        k(    5) = (  -0.5000000   0.0000000   0.0000000), wk =   0.2500000
        k(    6) = (   0.0000000  -0.5000000   0.0000000), wk =   0.2500000
        k(    7) = (  -0.5000000   0.0000000   0.5000000), wk =   0.2500000
        k(    8) = (  -0.5000000   0.5000000   0.0000000), wk =   0.2500000

     Dense  grid:   243441 G-vectors     FFT dimensions: (  80,  80,  80)

     Estimated max dynamical RAM per process >     225.82 MB

     Estimated total dynamical RAM >       6.88 GB

     Check: negative core charge=   -0.000029

     Initial potential from superposition of free atoms

     starting charge     471.9460, renormalised to     472.0000
     Starting wfcs are  400 randomized atomic wfcs
     Checking if some PAW data can be deallocated... 

     total cpu time spent up to now is        3.9 secs

     Self-consistent Calculation

     iteration #  1     ecut=    60.00 Ry     beta= 0.20
     Davidson diagonalization with overlap
     ethr =  1.00E-02,  avg # of iterations =  2.0

     total cpu time spent up to now is       11.3 secs

     total energy              =   -5636.99710755 Ry
     estimated scf accuracy    <      20.95297994 Ry

     iteration #  2     ecut=    60.00 Ry     beta= 0.20
     Davidson diagonalization with overlap
     ethr =  4.44E-03,  avg # of iterations =  1.0

     total cpu time spent up to now is       17.2 secs

     total energy              =   -5631.77491571 Ry
     estimated scf accuracy    <      12.00086421 Ry

     iteration #  3     ecut=    60.00 Ry     beta= 0.20
     Davidson diagonalization with overlap
     ethr =  2.54E-03,  avg # of iterations =  3.5

     total cpu time spent up to now is       25.8 secs

     total energy              =   -5634.75815560 Ry
     estimated scf accuracy    <       0.90507673 Ry

     iteration #  4     ecut=    60.00 Ry     beta= 0.20
     Davidson diagonalization with overlap
     ethr =  1.92E-04,  avg # of iterations =  4.0

     total cpu time spent up to now is       33.6 secs

     total energy              =   -5634.81685475 Ry
     estimated scf accuracy    <       0.28118851 Ry

     iteration #  5     ecut=    60.00 Ry     beta= 0.20
     Davidson diagonalization with overlap
     ethr =  5.96E-05,  avg # of iterations =  4.4

     total cpu time spent up to now is       43.2 secs

     total energy              =   -5634.68787659 Ry
     estimated scf accuracy    <       0.54522610 Ry

     iteration #  6     ecut=    60.00 Ry     beta= 0.20
     Davidson diagonalization with overlap
     ethr =  5.96E-05,  avg # of iterations =  5.1

     total cpu time spent up to now is       54.0 secs

     total energy              =   -5634.83914219 Ry
     estimated scf accuracy    <       0.23828589 Ry

     iteration #  7     ecut=    60.00 Ry     beta= 0.20
     Davidson diagonalization with overlap
     ethr =  5.05E-05,  avg # of iterations =  1.0

     total cpu time spent up to now is       60.1 secs

     total energy              =   -5634.84072309 Ry
     estimated scf accuracy    <       0.04624434 Ry

     iteration #  8     ecut=    60.00 Ry     beta= 0.20
     Davidson diagonalization with overlap
     ethr =  9.80E-06,  avg # of iterations = 18.0

     total cpu time spent up to now is       74.7 secs

     total energy              =   -5634.84926478 Ry
     estimated scf accuracy    <       0.00192981 Ry

     iteration #  9     ecut=    60.00 Ry     beta= 0.20
     Davidson diagonalization with overlap
     c_bands:  1 eigenvalues not converged
     c_bands:  2 eigenvalues not converged
     ethr =  4.09E-07,  avg # of iterations = 17.8

     total cpu time spent up to now is       88.6 secs

     total energy              =   -5634.84914044 Ry
     estimated scf accuracy    <       0.00120147 Ry

     iteration # 10     ecut=    60.00 Ry     beta= 0.20
     Davidson diagonalization with overlap
     ethr =  2.55E-07,  avg # of iterations =  4.8

     total cpu time spent up to now is       97.2 secs

     total energy              =   -5634.84924921 Ry
     estimated scf accuracy    <       0.00018214 Ry

     iteration # 11     ecut=    60.00 Ry     beta= 0.20
     Davidson diagonalization with overlap
     ethr =  3.86E-08,  avg # of iterations =  5.6

     total cpu time spent up to now is      108.0 secs

     total energy              =   -5634.84923640 Ry
     estimated scf accuracy    <       0.00042026 Ry

     iteration # 12     ecut=    60.00 Ry     beta= 0.20
     Davidson diagonalization with overlap
     ethr =  3.86E-08,  avg # of iterations =  2.4

     total cpu time spent up to now is      115.5 secs

     total energy              =   -5634.84923811 Ry
     estimated scf accuracy    <       0.00010413 Ry

     iteration # 13     ecut=    60.00 Ry     beta= 0.20
     Davidson diagonalization with overlap
     ethr =  2.21E-08,  avg # of iterations =  2.0

     total cpu time spent up to now is      123.1 secs

     total energy              =   -5634.84924405 Ry
     estimated scf accuracy    <       0.00002027 Ry

     iteration # 14     ecut=    60.00 Ry     beta= 0.20
     Davidson diagonalization with overlap
     ethr =  4.29E-09,  avg # of iterations =  5.0

     total cpu time spent up to now is      131.8 secs

     total energy              =   -5634.84924665 Ry
     estimated scf accuracy    <       0.00000237 Ry

     iteration # 15     ecut=    60.00 Ry     beta= 0.20
     Davidson diagonalization with overlap
     ethr =  5.02E-10,  avg # of iterations =  6.5

     total cpu time spent up to now is      141.9 secs

     total energy              =   -5634.84924702 Ry
     estimated scf accuracy    <       0.00000100 Ry

     iteration # 16     ecut=    60.00 Ry     beta= 0.20
     Davidson diagonalization with overlap
     ethr =  2.11E-10,  avg # of iterations =  2.0

     total cpu time spent up to now is      148.8 secs

     total energy              =   -5634.84924704 Ry
     estimated scf accuracy    <       0.00000022 Ry

     iteration # 17     ecut=    60.00 Ry     beta= 0.20
     Davidson diagonalization with overlap
     ethr =  4.69E-11,  avg # of iterations =  5.5

     total cpu time spent up to now is      157.5 secs

     total energy              =   -5634.84924706 Ry
     estimated scf accuracy    <       0.00000008 Ry

     iteration # 18     ecut=    60.00 Ry     beta= 0.20
     Davidson diagonalization with overlap
     ethr =  1.77E-11,  avg # of iterations =  3.2

     total cpu time spent up to now is      164.7 secs

     total energy              =   -5634.84924705 Ry
     estimated scf accuracy    <       0.00000003 Ry

     iteration # 19     ecut=    60.00 Ry     beta= 0.20
     Davidson diagonalization with overlap
     ethr =  6.63E-12,  avg # of iterations =  6.0

     total cpu time spent up to now is      173.3 secs

     total energy              =   -5634.84924704 Ry
     estimated scf accuracy    <       0.00000002 Ry

     iteration # 20     ecut=    60.00 Ry     beta= 0.20
     Davidson diagonalization with overlap
     ethr =  3.32E-12,  avg # of iterations =  5.6

     total cpu time spent up to now is      181.5 secs

     total energy              =   -5634.84924704 Ry
     estimated scf accuracy    <       0.00000001 Ry

     iteration # 21     ecut=    60.00 Ry     beta= 0.20
     Davidson diagonalization with overlap
     ethr =  2.39E-12,  avg # of iterations =  2.0

     total cpu time spent up to now is      188.2 secs

     End of self-consistent calculation

          k = 0.0000 0.0000 0.0000 ( 30551 PWs)   bands (ev):

   -41.3571 -41.0608 -41.0281 -41.0154 -41.0020 -40.9907 -40.9725 -40.9558
   -40.9475 -40.9467 -40.9287 -40.9275 -40.9206 -40.9081 -40.9013 -40.8906
   -40.8840 -40.8638 -40.8488 -40.8324 -40.8237 -40.8203 -40.8010 -40.7835
   -17.7830 -17.7644 -17.7599 -17.6976 -17.6868 -17.6830 -17.6739 -17.6108
   -17.5914 -17.5733 -17.5643 -17.5302 -17.5124 -17.4960 -17.4784 -17.4768
   -17.4729 -17.4681 -17.4620 -17.4452 -17.4407 -17.4284 -17.4261 -17.4145
   -17.4008 -17.3987 -17.3906 -17.3835 -17.3726 -17.3567 -17.3548 -17.3179
   -17.3078 -17.2946 -17.2785 -17.2730 -17.2638 -17.2496 -17.2473 -17.2338
   -17.2240 -17.2225 -17.2111 -17.2033 -17.2008 -17.1893 -17.1757 -17.1726
   -17.1601 -17.1538 -17.1381 -17.1301 -17.1260 -17.1221 -17.1076 -17.1009
   -17.0971 -17.0925 -17.0804 -17.0652 -17.0539 -17.0451 -17.0388 -17.0350
   -17.0280 -17.0119 -17.0075 -17.0001 -16.9980 -16.9921 -16.9843 -16.9678
    -1.2400  -0.1682  -0.0269   0.0660   0.1724   0.2547   0.3183   0.6684
     0.8453   0.8850   0.9240   0.9789   1.0020   1.0152   1.0709   1.0971
     1.1464   1.1664   1.2427   1.2738   1.3808   1.3963   1.4598   1.5464
     1.5844   1.6990   1.7526   1.7829   1.7972   1.8045   1.8542   1.9585
     7.6731   7.7391   7.7548   7.8813   8.8931   9.1643   9.2148   9.2424
     9.3070   9.3232   9.3592   9.3948   9.3997   9.4728   9.6073   9.6769
     9.7136   9.7461   9.7782   9.9715  10.1319  10.1933  10.2220  10.2654
    10.2882  10.3484  10.3943  10.4111  10.4771  10.4936  10.5316  10.6216
    10.6531  10.8048  10.8281  10.8994  10.9218  10.9819  10.9996  11.0173
    11.0237  11.0474  11.0673  11.1113  11.1414  11.1558  11.1662  11.2116
    11.2284  11.2807  11.3434  11.4354  11.4602  11.5129  11.5905  11.6271
    11.6388  11.7498  11.7934  11.8219  11.8333  11.9421  11.9918  12.0862
    12.1078  12.1348  12.1816  12.2939  12.3506  12.4172  12.4539  12.4861
    12.8914  12.9115  12.9938  13.0224  13.1063  13.1386  13.1582  13.1962
    13.2478  13.3779  13.3827  13.4207  13.4837  13.5053  13.5481  13.5684
    13.5947  13.6114  13.6937  13.7056  13.7612  13.8244  13.9324  13.9873
    14.7372  14.7647  14.7692  14.9573  15.0532  15.0541  15.1648  15.2646
    15.4530  16.4117  16.4672  16.6039  17.4875  17.5566  17.6048  17.6333
    17.6410  17.7143  17.7488  17.7847  17.8135  17.8558  17.8805  17.8993
    17.9115  17.9497  17.9923  18.0336  18.0484  18.1081  18.1533  18.1688
    18.2076  18.2253  18.2332  18.2548  18.2992  18.3026  18.3391  18.3569
    18.3992  18.4113  18.4168  18.4613  18.4773  18.5038  18.5205  18.5396
    18.5566  18.5763  18.6066  18.6156  18.6303  18.6325  18.6580  18.6720
    18.6865  18.6958  18.7073

          k = 0.0000 0.0000-0.5000 ( 30334 PWs)   bands (ev):

   -41.3571 -41.0580 -41.0283 -41.0185 -41.0019 -40.9893 -40.9746 -40.9609
   -40.9518 -40.9390 -40.9276 -40.9257 -40.9189 -40.9065 -40.9035 -40.8907
   -40.8850 -40.8675 -40.8440 -40.8293 -40.8241 -40.8201 -40.8042 -40.7838
   -17.7703 -17.7457 -17.7351 -17.6881 -17.6732 -17.6604 -17.6334 -17.6155
   -17.6142 -17.5951 -17.5691 -17.5647 -17.5464 -17.5398 -17.5178 -17.5114
   -17.4997 -17.4883 -17.4679 -17.4615 -17.4488 -17.4310 -17.4287 -17.4179
   -17.4158 -17.4060 -17.3962 -17.3692 -17.3476 -17.3336 -17.3207 -17.3095
   -17.3013 -17.2890 -17.2761 -17.2601 -17.2416 -17.2291 -17.2231 -17.2212
   -17.2155 -17.2089 -17.2008 -17.1932 -17.1767 -17.1724 -17.1651 -17.1567
   -17.1513 -17.1446 -17.1393 -17.1324 -17.1296 -17.1234 -17.1112 -17.1096
   -17.1072 -17.0888 -17.0846 -17.0712 -17.0637 -17.0500 -17.0447 -17.0420
   -17.0363 -17.0250 -17.0210 -17.0153 -17.0013 -16.9917 -16.9876 -16.9728
    -0.9355  -0.7419   0.2180   0.2356   0.3668   0.4258   0.4970   0.5654
     0.6226   0.6705   0.7132   0.7891   0.9809   1.0695   1.1591   1.2039
     1.2184   1.2692   1.2913   1.3208   1.3490   1.4001   1.4163   1.4727
     1.5478   1.5672   1.5876   1.6442   1.7395   1.8385   1.9224   2.0694
     7.9647   7.9943   8.2010   8.2694   8.3710   8.6063   9.0607   9.2003
     9.3255   9.3957   9.4867   9.5541   9.6085   9.6437   9.6696   9.6829
     9.7609   9.7759   9.8937   9.9085   9.9466   9.9893  10.0320  10.1164
    10.1713  10.2109  10.2853  10.3090  10.3405  10.3987  10.4362  10.5646
    10.5808  10.6582  10.9759  11.0287  11.0821  11.1044  11.1258  11.1623
    11.1839  11.2087  11.2398  11.2905  11.3123  11.3599  11.3898  11.4252
    11.4498  11.4777  11.5023  11.5337  11.5574  11.6268  11.6713  11.7518
    11.8089  11.8550  11.9121  11.9214  11.9775  12.0547  12.1497  12.1631
    12.1895  12.2073  12.2466  12.2848  12.3266  12.3346  12.3997  12.4218
    12.4560  12.5019  12.5691  12.6054  12.6730  12.7138  12.7414  12.8039
    12.8492  12.8665  12.9661  13.0204  13.2069  13.2450  13.2960  13.3510
    13.3605  13.4759  13.5434  13.5601  14.0971  14.1111  14.1552  14.1731
    14.2229  14.3577  15.5793  15.5855  15.6881  15.8071  15.9557  16.0190
    16.1705  16.2193  16.2462  16.3181  16.6976  16.7271  16.8529  16.9462
    17.4817  17.5080  17.6227  17.6968  17.7583  17.7853  17.8197  17.8852
    17.9120  17.9162  17.9478  17.9598  17.9874  18.0049  18.0187  18.0866
    18.1239  18.1934  18.2162  18.2280  18.2491  18.2669  18.2834  18.3123
    18.3370  18.3968  18.4115  18.4195  18.4428  18.4767  18.5041  18.5205
    18.5512  18.5793  18.5984  18.6334  18.6565  18.6751  18.7388  18.7505
    18.7693  18.8106  18.8234

          k = 0.0000-0.5000-0.5000 ( 30432 PWs)   bands (ev):

   -41.3571 -41.0553 -41.0323 -41.0173 -41.0020 -40.9887 -40.9718 -40.9622
   -40.9563 -40.9376 -40.9311 -40.9260 -40.9172 -40.9067 -40.9009 -40.8906
   -40.8850 -40.8665 -40.8421 -40.8298 -40.8243 -40.8201 -40.8047 -40.7847
   -17.7596 -17.7416 -17.7282 -17.6792 -17.6637 -17.6508 -17.6452 -17.6150
   -17.6018 -17.5971 -17.5866 -17.5743 -17.5533 -17.5408 -17.5318 -17.5192
   -17.5149 -17.5077 -17.4843 -17.4739 -17.4546 -17.4393 -17.4309 -17.4214
   -17.4043 -17.3888 -17.3790 -17.3516 -17.3395 -17.3256 -17.3113 -17.2942
   -17.2845 -17.2802 -17.2708 -17.2586 -17.2524 -17.2296 -17.2263 -17.2226
   -17.2081 -17.2010 -17.1969 -17.1865 -17.1847 -17.1753 -17.1635 -17.1507
   -17.1497 -17.1484 -17.1429 -17.1412 -17.1372 -17.1255 -17.1213 -17.1195
   -17.1105 -17.1043 -17.1031 -17.0844 -17.0740 -17.0539 -17.0444 -17.0313
   -17.0297 -17.0194 -17.0158 -17.0077 -16.9968 -16.9864 -16.9852 -16.9658
    -0.7078  -0.5156  -0.3289  -0.1264   0.5466   0.6106   0.6551   0.7453
     0.7471   0.8402   0.8931   0.9117   0.9144   0.9406   0.9845   1.0157
     1.0478   1.0735   1.1896   1.3255   1.3355   1.3846   1.4358   1.4760
     1.5032   1.5095   1.5384   1.6500   1.8323   1.9009   1.9697   2.0023
     8.0583   8.2211   8.3022   8.4187   8.6847   8.9351   9.0923   9.1779
     9.2491   9.3397   9.4229   9.4561   9.5153   9.6700   9.6841   9.7109
     9.7433   9.7588   9.7835   9.8100   9.8751   9.9138   9.9367  10.0210
    10.0818  10.1477  10.2999  10.3828  10.4877  10.5067  10.5702  10.6020
    10.7106  10.7680  10.8467  10.8856  11.0746  11.1246  11.1529  11.2125
    11.2612  11.3159  11.3336  11.3407  11.3871  11.4270  11.4582  11.5251
    11.5678  11.5834  11.6289  11.6694  11.6875  11.7367  11.7435  11.7675
    11.8212  11.8813  11.9301  11.9435  11.9514  11.9983  12.0428  12.0819
    12.1136  12.1502  12.2015  12.2170  12.2542  12.2992  12.3525  12.3933
    12.4235  12.4693  12.4784  12.5115  12.5325  12.5504  12.5814  12.6273
    12.6463  12.7187  12.7983  12.9197  13.0215  13.0852  13.1879  13.2538
    13.3304  13.4275  13.4503  13.4981  13.5302  13.6335  13.7235  13.8879
    15.4267  15.5967  15.6746  15.7682  15.9271  15.9902  16.0511  16.1249
    16.1544  16.2703  16.4126  16.6206  16.7025  16.7470  16.7733  16.9131
    16.9596  17.0031  17.0340  17.0799  17.1896  17.3057  17.3309  17.4219
    17.5313  17.7352  17.7924  17.8929  17.9235  17.9565  18.0000  18.0203
    18.0269  18.0861  18.1123  18.1483  18.1630  18.2147  18.2500  18.3361
    18.3889  18.4168  18.4511  18.4814  18.4942  18.5299  18.5492  18.5712
    18.6348  18.6482  18.6912  18.7507  18.7877  18.8209  18.8824  18.9137
    18.9303  18.9732  18.9837

          k =-0.5000-0.5000-0.5000 ( 30592 PWs)   bands (ev):

   -41.3571 -41.0548 -41.0323 -41.0167 -40.9995 -40.9892 -40.9815 -40.9593
   -40.9517 -40.9389 -40.9319 -40.9266 -40.9192 -40.9049 -40.8992 -40.8914
   -40.8831 -40.8665 -40.8420 -40.8299 -40.8239 -40.8215 -40.8047 -40.7849
   -17.7623 -17.7305 -17.7182 -17.6927 -17.6651 -17.6543 -17.6499 -17.6263
   -17.6017 -17.5864 -17.5781 -17.5673 -17.5473 -17.5333 -17.5297 -17.5235
   -17.5122 -17.5049 -17.4971 -17.4734 -17.4452 -17.4404 -17.4261 -17.4191
   -17.4115 -17.3983 -17.3779 -17.3648 -17.3489 -17.3215 -17.3109 -17.3009
   -17.2910 -17.2759 -17.2652 -17.2634 -17.2421 -17.2341 -17.2240 -17.2128
   -17.2094 -17.2056 -17.1931 -17.1882 -17.1825 -17.1754 -17.1705 -17.1624
   -17.1555 -17.1498 -17.1442 -17.1389 -17.1364 -17.1299 -17.1189 -17.1137
   -17.1126 -17.1080 -17.0954 -17.0898 -17.0742 -17.0546 -17.0520 -17.0352
   -17.0233 -17.0166 -17.0114 -16.9996 -16.9943 -16.9863 -16.9783 -16.9668
    -0.5502  -0.3175  -0.1105   0.0878   0.0942   0.1920   0.2890   0.3656
     0.8794   0.9059   0.9950   1.0129   1.0478   1.0860   1.1108   1.1246
     1.1384   1.1561   1.1813   1.1975   1.2516   1.2584   1.3886   1.4808
     1.5762   1.5972   1.6384   1.6932   1.7467   1.7757   1.8791   1.9513
     8.2987   8.3784   8.5090   8.5969   8.7149   8.8492   9.1036   9.1390
     9.3133   9.3258   9.3955   9.4555   9.4683   9.5100   9.5330   9.5841
     9.6392   9.7224   9.7991   9.8504   9.8825   9.9385  10.0885  10.1205
    10.4087  10.4782  10.5914  10.7025  10.7088  10.7537  10.7927  10.8185
    10.8767  10.8915  10.9122  10.9496  11.0125  11.0311  11.0748  11.0792
    11.1223  11.1514  11.1697  11.2321  11.2856  11.3041  11.3245  11.3653
    11.3864  11.4057  11.4444  11.4901  11.5161  11.5456  11.6179  11.6787
    11.8058  11.8219  11.8725  11.8997  11.9578  11.9946  12.0310  12.0726
    12.0956  12.1182  12.1231  12.1944  12.2136  12.2422  12.2528  12.3297
    12.3747  12.4252  12.4727  12.5418  12.5685  12.5792  12.6531  12.7464
    12.7644  12.8330  12.9297  12.9479  12.9964  13.0392  13.0981  13.1038
    13.1862  13.2330  13.2715  13.4143  13.4667  13.6445  13.7147  13.8427
    15.9519  16.0192  16.0457  16.0556  16.0986  16.1195  16.1777  16.2088
    16.2543  16.3022  16.3739  16.4304  16.4809  16.6157  16.7398  16.8809
    16.8977  16.9488  16.9724  17.0299  17.0775  17.1267  17.1725  17.1972
    17.2643  17.2878  17.3005  17.3542  17.4261  17.4392  17.4711  17.6749
    17.8294  17.8881  17.9190  17.9705  17.9951  18.0488  18.1104  18.1344
    18.1989  18.3756  18.4713  18.5326  18.5930  18.6679  18.6828  18.7371
    18.8923  18.9174  18.9799  18.9924  19.0051  19.0232  19.0304  19.0497
    19.0583  19.0731  19.1006

          k =-0.5000 0.0000 0.0000 ( 30334 PWs)   bands (ev):

   -41.3571 -41.0592 -41.0290 -41.0153 -41.0042 -40.9909 -40.9719 -40.9541
   -40.9492 -40.9448 -40.9294 -40.9275 -40.9240 -40.9062 -40.8990 -40.8917
   -40.8822 -40.8639 -40.8487 -40.8325 -40.8237 -40.8207 -40.8011 -40.7837
   -17.7689 -17.7372 -17.7329 -17.7169 -17.7099 -17.6656 -17.6579 -17.6140
   -17.5929 -17.5772 -17.5657 -17.5496 -17.5334 -17.5235 -17.5178 -17.4944
   -17.4869 -17.4727 -17.4665 -17.4580 -17.4405 -17.4333 -17.4228 -17.4071
   -17.4045 -17.3973 -17.3925 -17.3832 -17.3572 -17.3437 -17.3226 -17.3183
   -17.3004 -17.2898 -17.2799 -17.2609 -17.2570 -17.2445 -17.2311 -17.2269
   -17.2220 -17.2153 -17.2009 -17.1956 -17.1900 -17.1841 -17.1752 -17.1741
   -17.1695 -17.1450 -17.1403 -17.1346 -17.1263 -17.1234 -17.1140 -17.1105
   -17.0979 -17.0808 -17.0772 -17.0654 -17.0472 -17.0447 -17.0415 -17.0379
   -17.0312 -17.0159 -17.0137 -17.0068 -17.0052 -16.9988 -16.9903 -16.9681
    -0.9977  -0.5956   0.0280   0.2868   0.3507   0.4353   0.5098   0.5633
     0.6485   0.6806   0.7270   0.7479   0.9393   1.0234   1.1558   1.2066
     1.2278   1.2702   1.2746   1.3251   1.3766   1.4139   1.4204   1.4559
     1.5536   1.5919   1.6758   1.7641   1.8073   1.8418   1.8737   1.9256
     7.9551   8.1427   8.1848   8.3374   8.3637   8.6805   8.7273   9.0154
     9.1899   9.2988   9.3533   9.4411   9.4958   9.6140   9.6355   9.7498
     9.8372   9.8566   9.9763   9.9997  10.0479  10.1305  10.1429  10.1635
    10.2272  10.2601  10.3054  10.3495  10.4060  10.4580  10.5369  10.6149
    10.6645  10.7429  10.8559  10.9201  10.9308  11.0140  11.0424  11.0804
    11.0870  11.1154  11.1379  11.2171  11.2964  11.3226  11.3310  11.3825
    11.4349  11.4756  11.5637  11.5983  11.6374  11.6789  11.7497  11.8019
    11.8987  11.9330  11.9989  12.0724  12.1108  12.1162  12.1333  12.1507
    12.1900  12.2969  12.3034  12.3582  12.4093  12.4181  12.4378  12.4510
    12.5172  12.5210  12.5402  12.5617  12.6134  12.6199  12.6549  12.7180
    12.8388  12.8868  13.0223  13.0750  13.0881  13.1777  13.2836  13.3047
    13.3761  13.4405  13.4695  13.5176  13.8902  14.0583  14.0680  14.1323
    14.2048  14.7036  15.2186  15.2976  15.9005  15.9557  16.0753  16.0985
    16.1229  16.2099  16.3817  16.3957  16.7777  16.8284  16.9700  16.9883
    17.2844  17.3830  17.6106  17.6460  17.6636  17.7189  17.7389  17.7988
    17.8246  17.8650  17.8865  17.9301  17.9820  18.0528  18.0746  18.1075
    18.1486  18.1706  18.1898  18.2164  18.2458  18.2514  18.3017  18.3164
    18.3381  18.3812  18.4402  18.4488  18.4678  18.4961  18.5079  18.5422
    18.5472  18.5658  18.6161  18.6247  18.6502  18.6793  18.6937  18.7227
    18.7501  18.7674  18.8283

          k = 0.0000-0.5000 0.0000 ( 30334 PWs)   bands (ev):

   -41.3571 -41.0571 -41.0337 -41.0149 -41.0019 -40.9892 -40.9709 -40.9566
   -40.9506 -40.9449 -40.9330 -40.9265 -40.9192 -40.9069 -40.9009 -40.8901
   -40.8844 -40.8621 -40.8487 -40.8298 -40.8248 -40.8207 -40.8019 -40.7842
   -17.7611 -17.7471 -17.7366 -17.6943 -17.6797 -17.6619 -17.6572 -17.6290
   -17.5988 -17.5849 -17.5828 -17.5592 -17.5491 -17.5277 -17.5103 -17.5040
   -17.5011 -17.4936 -17.4764 -17.4585 -17.4481 -17.4362 -17.4204 -17.4042
   -17.3923 -17.3824 -17.3702 -17.3682 -17.3527 -17.3346 -17.3239 -17.3146
   -17.2979 -17.2924 -17.2742 -17.2701 -17.2619 -17.2470 -17.2388 -17.2225
   -17.2215 -17.2073 -17.2055 -17.1968 -17.1855 -17.1831 -17.1677 -17.1642
   -17.1606 -17.1452 -17.1401 -17.1319 -17.1209 -17.1145 -17.1058 -17.1003
   -17.0965 -17.0900 -17.0828 -17.0708 -17.0648 -17.0593 -17.0558 -17.0383
   -17.0363 -17.0170 -17.0105 -17.0074 -17.0002 -16.9958 -16.9840 -16.9725
    -0.9721  -0.6761   0.1892   0.2763   0.3117   0.4323   0.5115   0.5759
     0.6088   0.6179   0.6835   0.8476   0.8928   1.0686   1.1087   1.2145
     1.2325   1.2648   1.3045   1.3677   1.3785   1.4219   1.4501   1.4540
     1.5534   1.5974   1.6365   1.7171   1.7521   1.8312   1.8970   1.9465
     7.9545   8.1242   8.1322   8.2163   8.4723   8.7453   8.8766   8.9865
     9.3358   9.3664   9.4576   9.5269   9.5608   9.6153   9.6692   9.7301
     9.7779   9.8282   9.8809   9.9183   9.9607  10.0522  10.1102  10.1397
    10.1485  10.2166  10.2450  10.2787  10.3617  10.4328  10.4556  10.4913
    10.5505  10.8787  10.9346  10.9552  11.0138  11.0433  11.0799  11.1467
    11.1585  11.1669  11.2082  11.2750  11.2832  11.3152  11.3479  11.3880
    11.4679  11.4789  11.5033  11.5681  11.6465  11.6976  11.7467  11.7807
    11.8088  11.9029  11.9549  12.0391  12.0602  12.0989  12.1251  12.1458
    12.2161  12.2609  12.2910  12.3296  12.3422  12.4296  12.4540  12.4834
    12.5185  12.5480  12.5826  12.5979  12.6162  12.6281  12.6837  12.7789
    12.7856  12.8747  12.9349  13.0467  13.1565  13.2652  13.2938  13.3327
    13.3680  13.4312  13.4520  13.4819  14.0168  14.0311  14.1084  14.1458
    14.2058  14.5572  15.3769  15.4379  15.7908  15.8171  15.9130  16.0949
    16.1948  16.2078  16.2593  16.4392  16.6824  16.7603  17.0159  17.0366
    17.3722  17.4155  17.5580  17.7733  17.7815  17.8140  17.8248  17.8388
    17.8692  17.8801  17.9437  17.9795  17.9848  18.0636  18.0768  18.0931
    18.1400  18.1617  18.1687  18.2109  18.2466  18.2697  18.2865  18.3115
    18.3330  18.3808  18.3886  18.4116  18.4211  18.4670  18.5083  18.5166
    18.5555  18.5925  18.6191  18.6359  18.6435  18.6809  18.7068  18.7154
    18.7372  18.7581  18.7836

          k =-0.5000 0.0000 0.5000 ( 30432 PWs)   bands (ev):

   -41.3571 -41.0569 -41.0289 -41.0179 -41.0020 -40.9901 -40.9776 -40.9595
   -40.9511 -40.9372 -40.9291 -40.9272 -40.9203 -40.9068 -40.9003 -40.8915
   -40.8830 -40.8675 -40.8438 -40.8294 -40.8238 -40.8213 -40.8042 -40.7840
   -17.7621 -17.7335 -17.7166 -17.6985 -17.6855 -17.6438 -17.6382 -17.6249
   -17.6036 -17.5941 -17.5677 -17.5635 -17.5481 -17.5452 -17.5348 -17.5243
   -17.5227 -17.5008 -17.4854 -17.4585 -17.4528 -17.4456 -17.4284 -17.4114
   -17.4025 -17.3954 -17.3874 -17.3622 -17.3452 -17.3233 -17.3170 -17.2916
   -17.2832 -17.2808 -17.2761 -17.2585 -17.2522 -17.2387 -17.2366 -17.2190
   -17.2049 -17.1965 -17.1894 -17.1869 -17.1780 -17.1710 -17.1692 -17.1656
   -17.1572 -17.1543 -17.1418 -17.1381 -17.1321 -17.1226 -17.1164 -17.1104
   -17.1032 -17.1003 -17.0865 -17.0832 -17.0711 -17.0545 -17.0473 -17.0389
   -17.0307 -17.0290 -17.0167 -17.0073 -16.9973 -16.9904 -16.9781 -16.9715
    -0.7378  -0.4956  -0.2414  -0.1511   0.4677   0.5527   0.6922   0.7106
     0.7830   0.8015   0.8631   0.8789   0.9156   0.9759   1.0099   1.0415
     1.0714   1.1375   1.2044   1.2347   1.2764   1.3239   1.4025   1.5275
     1.5656   1.5956   1.6034   1.6670   1.8125   1.8736   1.8884   2.0607
     8.0760   8.2330   8.3417   8.5681   8.6768   8.7225   9.0264   9.0895
     9.1849   9.3858   9.4004   9.4357   9.4530   9.4816   9.5083   9.6952
     9.7363   9.7498   9.7940   9.8411   9.9382   9.9737  10.0159  10.0987
    10.1485  10.2468  10.3981  10.4337  10.5536  10.5625  10.6015  10.6410
    10.6608  10.8411  10.9236  10.9465  11.0057  11.1364  11.1489  11.1719
    11.2125  11.2269  11.2937  11.3742  11.3956  11.4127  11.4312  11.4755
    11.5042  11.5696  11.6338  11.6914  11.7062  11.7404  11.7594  11.8048
    11.8837  11.9084  11.9449  11.9527  12.0056  12.0140  12.0422  12.0938
    12.1151  12.1372  12.1698  12.2055  12.2930  12.3192  12.3347  12.3594
    12.4177  12.4395  12.4739  12.4976  12.5352  12.5423  12.5837  12.6293
    12.6707  12.6841  12.8154  12.9964  13.0331  13.1285  13.2319  13.2470
    13.3094  13.3799  13.4347  13.4522  13.4722  13.5638  13.6468  13.8902
    15.2684  15.5889  15.7315  15.8966  15.9414  16.0112  16.0877  16.1326
    16.1860  16.3536  16.3959  16.4924  16.6581  16.7440  16.8224  16.8748
    16.9499  16.9874  17.0142  17.1191  17.2592  17.3105  17.4136  17.4697
    17.5682  17.6934  17.7612  17.8982  17.9219  17.9292  17.9760  18.0143
    18.0178  18.0648  18.1035  18.1459  18.2006  18.2079  18.2496  18.3043
    18.3192  18.3761  18.4169  18.4616  18.4710  18.5150  18.5422  18.5689
    18.6355  18.6567  18.7206  18.7544  18.8103  18.8198  18.8391  18.8615
    18.9110  18.9564  18.9705

          k =-0.5000 0.5000 0.0000 ( 30432 PWs)   bands (ev):

   -41.3571 -41.0561 -41.0334 -41.0151 -41.0002 -40.9936 -40.9739 -40.9534
   -40.9512 -40.9419 -40.9340 -40.9271 -40.9215 -40.9072 -40.8974 -40.8914
   -40.8827 -40.8622 -40.8487 -40.8298 -40.8251 -40.8210 -40.8020 -40.7844
   -17.7661 -17.7335 -17.7197 -17.7000 -17.6599 -17.6482 -17.6374 -17.6286
   -17.5995 -17.5893 -17.5762 -17.5614 -17.5521 -17.5482 -17.5388 -17.5186
   -17.5107 -17.5002 -17.4974 -17.4792 -17.4677 -17.4504 -17.4277 -17.4094
   -17.4024 -17.3956 -17.3736 -17.3596 -17.3505 -17.3149 -17.2935 -17.2822
   -17.2779 -17.2755 -17.2686 -17.2603 -17.2490 -17.2438 -17.2395 -17.2291
   -17.2240 -17.2159 -17.2017 -17.1887 -17.1833 -17.1788 -17.1699 -17.1674
   -17.1530 -17.1489 -17.1431 -17.1276 -17.1236 -17.1203 -17.1164 -17.1060
   -17.0992 -17.0844 -17.0793 -17.0735 -17.0662 -17.0576 -17.0536 -17.0394
   -17.0312 -17.0174 -17.0140 -17.0134 -17.0066 -17.0051 -16.9811 -16.9732
    -0.7764  -0.4191  -0.2713  -0.0958   0.4018   0.5406   0.7128   0.7240
     0.7324   0.7898   0.8277   0.8656   0.8987   0.9690   0.9742   1.0182
     1.0563   1.0857   1.2041   1.3259   1.3550   1.4045   1.4389   1.4715
     1.5717   1.6246   1.6804   1.7472   1.8114   1.8301   1.8937   1.9222
     8.0687   8.2780   8.4629   8.5633   8.7461   8.7939   8.9338   9.1509
     9.1525   9.2342   9.2774   9.3123   9.3696   9.4215   9.4633   9.6108
     9.6619   9.6939   9.7524   9.9127   9.9638  10.0578  10.0816  10.1163
    10.2448  10.2973  10.3924  10.4048  10.5248  10.5833  10.6471  10.7128
    10.7794  10.8002  10.8468  10.9866  11.0150  11.0996  11.1301  11.1858
    11.2005  11.2346  11.2704  11.2955  11.3676  11.3927  11.4626  11.5101
    11.5280  11.5794  11.6923  11.7171  11.7360  11.7610  11.8002  11.8467
    11.8719  11.8786  11.9496  11.9606  12.0147  12.0410  12.0625  12.1240
    12.1604  12.1697  12.2102  12.2481  12.2741  12.2922  12.3418  12.3986
    12.4394  12.4642  12.5176  12.5251  12.5804  12.6008  12.6408  12.6528
    12.6737  12.7640  12.8269  12.9000  13.0742  13.1083  13.1243  13.2127
    13.2730  13.3145  13.3479  13.3619  13.4416  13.4809  13.6216  13.8096
    15.3882  15.5212  15.6015  15.7220  15.8258  16.0512  16.0736  16.2476
    16.2865  16.4336  16.4722  16.5649  16.6093  16.6754  16.7462  16.8709
    16.8980  16.9890  17.1365  17.2024  17.2168  17.2731  17.4927  17.4978
    17.7409  17.8139  17.8788  17.8854  17.9186  17.9451  17.9624  17.9935
    17.9997  18.0502  18.0670  18.1080  18.1929  18.2275  18.2501  18.2839
    18.2954  18.3364  18.3643  18.4478  18.5022  18.5326  18.5388  18.5741
    18.5986  18.6292  18.6510  18.6837  18.7503  18.7838  18.8107  18.8565
    18.8983  18.9230  18.9409

     the Fermi energy is    16.5876 ev

!    total energy              =   -5634.84924704 Ry
     total all-electron energy =    -48379.702871 Ry
     estimated scf accuracy    <          4.3E-09 Ry
     smearing contrib. (-TS)   =      -0.00196301 Ry
     internal energy E=F+TS    =   -5634.84728403 Ry

     The total energy is F=E-TS. E is the sum of the following terms:
     one-electron contribution =    -890.36612649 Ry
     hartree contribution      =     755.53101937 Ry
     xc contribution           =    -657.49744042 Ry
     ewald contribution        =   -2742.03591452 Ry
     one-center paw contrib.   =   -2100.47882197 Ry

     convergence has been achieved in  21 iterations
 
     init_run     :      3.30s CPU      3.46s WALL (       1 calls)
     electrons    :    180.33s CPU    184.28s WALL (       1 calls)

     Called by init_run:
     wfcinit      :      2.85s CPU      2.96s WALL (       1 calls)
     potinit      :      0.21s CPU      0.22s WALL (       1 calls)
     hinit0       :      0.12s CPU      0.13s WALL (       1 calls)

     Called by electrons:
     c_bands      :    157.77s CPU    160.78s WALL (      21 calls)
     sum_band     :     16.30s CPU     16.81s WALL (      21 calls)
     v_of_rho     :      0.77s CPU      0.79s WALL (      22 calls)
     newd         :      1.29s CPU      1.54s WALL (      22 calls)
     PAW_pot      :      3.43s CPU      3.51s WALL (      22 calls)
     mix_rho      :      0.98s CPU      1.04s WALL (      21 calls)

     Called by c_bands:
     init_us_2    :      1.66s CPU      1.70s WALL (      86 calls)
     init_us_2:cp :      1.66s CPU      1.70s WALL (      86 calls)
     cegterg      :    143.18s CPU    146.08s WALL (      42 calls)

     Called by *egterg:
     cdiaghg      :     20.08s CPU     20.52s WALL (     257 calls)
     h_psi        :     65.09s CPU     66.21s WALL (     259 calls)
     s_psi        :     16.32s CPU     16.47s WALL (     259 calls)
     g_psi        :      0.29s CPU      0.29s WALL (     215 calls)

     Called by h_psi:
     h_psi:calbec :     15.54s CPU     15.69s WALL (     259 calls)
     vloc_psi     :     32.63s CPU     33.23s WALL (     259 calls)
     add_vuspsi   :     16.32s CPU     16.51s WALL (     259 calls)

     General routines
     calbec       :     21.47s CPU     21.66s WALL (     301 calls)
     fft          :      0.34s CPU      0.35s WALL (     242 calls)
     ffts         :      0.49s CPU      0.49s WALL (     437 calls)
     fftw         :     33.53s CPU     34.13s WALL (   71538 calls)
 
     Parallel routines
 
     PWSCF        :   3m 3.88s CPU   3m 8.46s WALL

 
   This run was terminated on:  17:39:18  11May2026            

=------------------------------------------------------------------------------=
   JOB DONE.
=------------------------------------------------------------------------------=
