
     Program PWSCF v.7.1 starts on 11May2026 at 17:36:10 

     This program is part of the open-source Quantum ESPRESSO suite
     for quantum simulation of materials; please cite
         "P. Giannozzi et al., J. Phys.:Condens. Matter 21 395502 (2009);
         "P. Giannozzi et al., J. Phys.:Condens. Matter 29 465901 (2017);
         "P. Giannozzi et al., J. Chem. Phys. 152 154105 (2020);
          URL http://www.quantum-espresso.org", 
     in publications or presentations arising from this work. More details at
     http://www.quantum-espresso.org/quote

     Parallel version (MPI & OpenMP), running on      32 processor cores
     Number of MPI processes:                32
     Threads/MPI process:                     1

     MPI processes distributed on     1 nodes
     90929 MiB available memory on the printing compute node when the environment starts
 
     Reading input from TiAlN_x025finalrelaxedresult8436975.in

     Current dimensions of program PWSCF are:
     Max number of different atomic species (ntypx) = 10
     Max number of k-points (npk) = 150000
     Max angular momentum in pseudopotentials (lmaxx) =  4
     file Al.pbe-n-kjpaw_psl.1.0.0.UPF: wavefunction(s)  3S 3P renormalized
     file N.pbe-n-kjpaw_psl.1.0.0.UPF: wavefunction(s)  2S renormalized
     file Ti.pbe-spn-kjpaw_psl.1.0.0.UPF: wavefunction(s)  3S 3P 3D renormalized
 
     K-points division:     npool     =       4
     R & G space division:  proc/nbgrp/npool/nimage =       8
     Subspace diagonalization in iterative solution of the eigenvalue problem:
     one sub-group per band group will be used
     scalapack distributed-memory algorithm (size of sub-group:  2*  2 procs)

 
     Parallelization info
     --------------------
     sticks:   dense  smooth     PW     G-vecs:    dense   smooth      PW
     Min         607     607    164                31801    31801    4531
     Max         608     608    166                31804    31804    4535
     Sum        4857    4857   1321               254415   254415   36257
 
     Using Slab Decomposition
 


     bravais-lattice index     =            0
     lattice parameter (alat)  =      15.9436  a.u.
     unit-cell volume          =    4052.8160 (a.u.)^3
     number of atoms/cell      =           64
     number of atomic types    =            3
     number of electrons       =       472.00
     number of Kohn-Sham states=          283
     kinetic-energy cutoff     =      60.0000  Ry
     charge density cutoff     =     240.0000  Ry
     scf convergence threshold =      1.0E-08
     mixing beta               =       0.2000
     number of iterations used =            8  local-TF  mixing
     Exchange-correlation= SLA  PW   PBX  PBC
                           (   1   4   3   4   0   0   0)

     celldm(1)=  15.943572  celldm(2)=   0.000000  celldm(3)=   0.000000
     celldm(4)=   0.000000  celldm(5)=   0.000000  celldm(6)=   0.000000

     crystal axes: (cart. coord. in units of alat)
               a(1) = (   1.000000   0.000000   0.000000 )  
               a(2) = (   0.000000   1.000000   0.000000 )  
               a(3) = (   0.000000   0.000000   1.000000 )  

     reciprocal axes: (cart. coord. in units 2 pi/alat)
               b(1) = (  1.000000  0.000000  0.000000 )  
               b(2) = (  0.000000  1.000000  0.000000 )  
               b(3) = (  0.000000  0.000000  1.000000 )  


     PseudoPot. # 1 for Al read from file:
     ../../../pseudo/Al.pbe-n-kjpaw_psl.1.0.0.UPF
     MD5 check sum: 502b6b27b9c6270cab5dd1084b96fa6d
     Pseudo is Projector augmented-wave + core cor, Zval =  3.0
     Generated using &quot;atomic&quot; code by A. Dal Corso  v.6.3
     Shape of augmentation charge: PSQ
     Using radial grid of 1135 points,  6 beta functions with: 
                l(1) =   0
                l(2) =   0
                l(3) =   1
                l(4) =   1
                l(5) =   2
                l(6) =   2
     Q(r) pseudized with 0 coefficients 


     PseudoPot. # 2 for N  read from file:
     ../../../pseudo/N.pbe-n-kjpaw_psl.1.0.0.UPF
     MD5 check sum: 14c48229446f9f2d411169a3abcbc3fa
     Pseudo is Projector augmented-wave + core cor, Zval =  5.0
     Generated using &quot;atomic&quot; code by A. Dal Corso  v.6.3
     Shape of augmentation charge: PSQ
     Using radial grid of 1085 points,  4 beta functions with: 
                l(1) =   0
                l(2) =   0
                l(3) =   1
                l(4) =   1
     Q(r) pseudized with 0 coefficients 


     PseudoPot. # 3 for Ti read from file:
     ../../../pseudo/Ti.pbe-spn-kjpaw_psl.1.0.0.UPF
     MD5 check sum: 01f69b0d8ba4438b2e03ac6ea4af1c0b
     Pseudo is Projector augmented-wave + core cor, Zval = 12.0
     Generated using &quot;atomic&quot; code by A. Dal Corso  v.6.2.2
     Shape of augmentation charge: PSQ
     Using radial grid of 1177 points,  6 beta functions with: 
                l(1) =   0
                l(2) =   0
                l(3) =   1
                l(4) =   1
                l(5) =   2
                l(6) =   2
     Q(r) pseudized with 0 coefficients 


     atomic species   valence    mass     pseudopotential
        Al             3.00    26.98200     Al( 1.00)
        N              5.00    14.00700     N ( 1.00)
        Ti            12.00    47.86700     Ti( 1.00)

     No symmetry found



   Cartesian axes

     site n.     atom                  positions (alat units)
         1           Al  tau(   1) = (   0.0036936  -0.0000811   0.0012703  )
         2           N   tau(   2) = (   0.2418951  -0.0048265  -0.0084564  )
         3           Al  tau(   3) = (   0.0004872   0.2429981   0.2505284  )
         4           N   tau(   4) = (   0.2501935   0.2484738   0.2539657  )
         5           Ti  tau(   5) = (   0.2537138  -0.0074691   0.2495022  )
         6           N   tau(   6) = (   0.0015491   0.0070435   0.2493233  )
         7           Ti  tau(   7) = (   0.2523648   0.2515478   0.0006628  )
         8           N   tau(   8) = (   0.0026891   0.2405591   0.0093861  )
         9           Al  tau(   9) = (   0.0029589   0.0039014   0.4969114  )
        10           N   tau(  10) = (   0.2418743   0.0050586   0.5054782  )
        11           Ti  tau(  11) = (  -0.0080573   0.2519214   0.7476056  )
        12           N   tau(  12) = (   0.2485389   0.2502364   0.7424567  )
        13           Al  tau(  13) = (   0.2440765  -0.0006029   0.7455343  )
        14           N   tau(  14) = (   0.0070552   0.0016576   0.7463872  )
        15           Al  tau(  15) = (   0.2478157   0.2476026   0.4986601  )
        16           N   tau(  16) = (   0.0061229   0.2420354   0.4904725  )
        17           Ti  tau(  17) = (  -0.0027257   0.4979380   0.0027068  )
        18           N   tau(  18) = (   0.2474337   0.5041804  -0.0093006  )
        19           Ti  tau(  19) = (   0.0006161   0.7431071   0.2513101  )
        20           N   tau(  20) = (   0.2492888   0.7463826   0.2376166  )
        21           Ti  tau(  21) = (   0.2457906   0.5047495   0.2500523  )
        22           N   tau(  22) = (   0.0004011   0.4848952   0.2486240  )
        23           Al  tau(  23) = (   0.2465309   0.7475249  -0.0083181  )
        24           N   tau(  24) = (   0.0067073   0.7546466   0.0005888  )
        25           Ti  tau(  25) = (  -0.0009554   0.5003616   0.4949271  )
        26           N   tau(  26) = (   0.2479585   0.4903473   0.5068793  )
        27           Ti  tau(  27) = (  -0.0078813   0.7429732   0.7433934  )
        28           N   tau(  28) = (   0.2485824   0.7447195   0.7501956  )
        29           Al  tau(  29) = (   0.2496545   0.4978795   0.7457327  )
        30           N   tau(  30) = (   0.0080409   0.4967443   0.7465033  )
        31           Ti  tau(  31) = (   0.2495552   0.7436814   0.4936327  )
        32           N   tau(  32) = (   0.0016188   0.7572776   0.4965704  )
        33           Ti  tau(  33) = (   0.5000073  -0.0007364   0.0008518  )
        34           N   tau(  34) = (   0.7575659  -0.0007484  -0.0004736  )
        35           Al  tau(  35) = (   0.4963643   0.2501709   0.2527017  )
        36           N   tau(  36) = (   0.7443314   0.2487499   0.2499368  )
        37           Ti  tau(  37) = (   0.7418240  -0.0056063   0.2476494  )
        38           N   tau(  38) = (   0.4971549   0.0099650   0.2491812  )
        39           Ti  tau(  39) = (   0.7428251   0.2498584  -0.0041573  )
        40           N   tau(  40) = (   0.4949459   0.2479805   0.0103761  )
        41           Ti  tau(  41) = (   0.4991925  -0.0038631   0.4967667  )
        42           N   tau(  42) = (   0.7566816   0.0008138   0.4981650  )
        43           Ti  tau(  43) = (   0.5052497   0.2455145   0.7467386  )
        44           N   tau(  44) = (   0.7463415   0.2498218   0.7454214  )
        45           Ti  tau(  45) = (   0.7444286   0.0002017   0.7473906  )
        46           N   tau(  46) = (   0.4861533   0.0010661   0.7462287  )
        47           Ti  tau(  47) = (   0.7443146   0.2507130   0.5021918  )
        48           N   tau(  48) = (   0.4899159   0.2474808   0.4900313  )
        49           Ti  tau(  49) = (   0.5003545   0.4980310   0.0011333  )
        50           N   tau(  50) = (   0.7475962   0.4984803  -0.0010569  )
        51           Ti  tau(  51) = (   0.4965905   0.7470803   0.2499416  )
        52           N   tau(  52) = (   0.7456410   0.7462864   0.2479463  )
        53           Ti  tau(  53) = (   0.7495248   0.5029223   0.2478263  )
        54           N   tau(  54) = (   0.4972140   0.4879925   0.2490773  )
        55           Ti  tau(  55) = (   0.7453398   0.7453951  -0.0013421  )
        56           N   tau(  56) = (   0.4891500   0.7469632   0.0010798  )
        57           Ti  tau(  57) = (   0.4987406   0.5014810   0.4968796  )
        58           N   tau(  58) = (   0.7472298   0.4968300   0.4988797  )
        59           Ti  tau(  59) = (   0.5046998   0.7492791   0.7448727  )
        60           N   tau(  60) = (   0.7459285   0.7456998   0.7467203  )
        61           Ti  tau(  61) = (   0.7464933   0.4977194   0.7468246  )
        62           N   tau(  62) = (   0.4892867   0.4961953   0.7465353  )
        63           Ti  tau(  63) = (   0.7456712   0.7443558   0.4991666  )
        64           N   tau(  64) = (   0.4962523   0.7470385   0.4963097  )

     number of k points=     8  Gaussian smearing, width (Ry)=  0.0050
                       cart. coord. in units 2pi/alat
        k(    1) = (   0.0000000   0.0000000   0.0000000), wk =   0.2500000
        k(    2) = (   0.0000000   0.0000000  -0.5000000), wk =   0.2500000
        k(    3) = (   0.0000000  -0.5000000  -0.5000000), wk =   0.2500000
        k(    4) = (  -0.5000000  -0.5000000  -0.5000000), wk =   0.2500000
        k(    5) = (  -0.5000000   0.0000000   0.0000000), wk =   0.2500000
        k(    6) = (   0.0000000  -0.5000000   0.0000000), wk =   0.2500000
        k(    7) = (  -0.5000000   0.0000000   0.5000000), wk =   0.2500000
        k(    8) = (  -0.5000000   0.5000000   0.0000000), wk =   0.2500000

     Dense  grid:   254415 G-vectors     FFT dimensions: (  80,  80,  80)

     Estimated max dynamical RAM per process >     235.55 MB

     Estimated total dynamical RAM >       7.18 GB

     Check: negative core charge=   -0.000028

     Initial potential from superposition of free atoms

     starting charge     471.9460, renormalised to     472.0000
     Starting wfcs are  400 randomized atomic wfcs
     Checking if some PAW data can be deallocated... 

     total cpu time spent up to now is        4.3 secs

     Self-consistent Calculation

     iteration #  1     ecut=    60.00 Ry     beta= 0.20
     Davidson diagonalization with overlap
     ethr =  1.00E-02,  avg # of iterations =  2.0

     total cpu time spent up to now is       12.2 secs

     total energy              =   -5637.06849436 Ry
     estimated scf accuracy    <      20.82438549 Ry

     iteration #  2     ecut=    60.00 Ry     beta= 0.20
     Davidson diagonalization with overlap
     ethr =  4.41E-03,  avg # of iterations =  1.0

     total cpu time spent up to now is       18.6 secs

     total energy              =   -5631.92072976 Ry
     estimated scf accuracy    <      11.91005074 Ry

     iteration #  3     ecut=    60.00 Ry     beta= 0.20
     Davidson diagonalization with overlap
     ethr =  2.52E-03,  avg # of iterations =  3.9

     total cpu time spent up to now is       27.9 secs

     total energy              =   -5634.87717374 Ry
     estimated scf accuracy    <       0.97190377 Ry

     iteration #  4     ecut=    60.00 Ry     beta= 0.20
     Davidson diagonalization with overlap
     ethr =  2.06E-04,  avg # of iterations =  3.5

     total cpu time spent up to now is       36.3 secs

     total energy              =   -5634.97114182 Ry
     estimated scf accuracy    <       0.25477110 Ry

     iteration #  5     ecut=    60.00 Ry     beta= 0.20
     Davidson diagonalization with overlap
     ethr =  5.40E-05,  avg # of iterations =  4.1

     total cpu time spent up to now is       46.0 secs

     total energy              =   -5634.91054883 Ry
     estimated scf accuracy    <       0.29976505 Ry

     iteration #  6     ecut=    60.00 Ry     beta= 0.20
     Davidson diagonalization with overlap
     ethr =  5.40E-05,  avg # of iterations = 10.5

     total cpu time spent up to now is       60.6 secs

     total energy              =   -5634.98085878 Ry
     estimated scf accuracy    <       0.14425990 Ry

     iteration #  7     ecut=    60.00 Ry     beta= 0.20
     Davidson diagonalization with overlap
     ethr =  3.06E-05,  avg # of iterations =  2.0

     total cpu time spent up to now is       67.8 secs

     total energy              =   -5634.98225166 Ry
     estimated scf accuracy    <       0.02929579 Ry

     iteration #  8     ecut=    60.00 Ry     beta= 0.20
     Davidson diagonalization with overlap
     c_bands:  1 eigenvalues not converged
     ethr =  6.21E-06,  avg # of iterations = 13.8

     total cpu time spent up to now is       82.4 secs

     total energy              =   -5634.98843943 Ry
     estimated scf accuracy    <       0.00143634 Ry

     iteration #  9     ecut=    60.00 Ry     beta= 0.20
     Davidson diagonalization with overlap
     c_bands:  1 eigenvalues not converged
     c_bands:  2 eigenvalues not converged
     ethr =  3.04E-07,  avg # of iterations = 14.2

     total cpu time spent up to now is       97.5 secs

     total energy              =   -5634.98838711 Ry
     estimated scf accuracy    <       0.00199678 Ry

     iteration # 10     ecut=    60.00 Ry     beta= 0.20
     Davidson diagonalization with overlap
     ethr =  3.04E-07,  avg # of iterations =  2.0

     total cpu time spent up to now is      105.0 secs

     total energy              =   -5634.98843574 Ry
     estimated scf accuracy    <       0.00024680 Ry

     iteration # 11     ecut=    60.00 Ry     beta= 0.20
     Davidson diagonalization with overlap
     ethr =  5.23E-08,  avg # of iterations =  5.0

     total cpu time spent up to now is      116.1 secs

     total energy              =   -5634.98853511 Ry
     estimated scf accuracy    <       0.00038092 Ry

     iteration # 12     ecut=    60.00 Ry     beta= 0.20
     Davidson diagonalization with overlap
     ethr =  5.23E-08,  avg # of iterations =  1.0

     total cpu time spent up to now is      122.6 secs

     total energy              =   -5634.98853339 Ry
     estimated scf accuracy    <       0.00013023 Ry

     iteration # 13     ecut=    60.00 Ry     beta= 0.20
     Davidson diagonalization with overlap
     ethr =  2.76E-08,  avg # of iterations =  1.6

     total cpu time spent up to now is      129.7 secs

     total energy              =   -5634.98851771 Ry
     estimated scf accuracy    <       0.00007822 Ry

     iteration # 14     ecut=    60.00 Ry     beta= 0.20
     Davidson diagonalization with overlap
     ethr =  1.66E-08,  avg # of iterations =  4.5

     total cpu time spent up to now is      138.1 secs

     total energy              =   -5634.98852339 Ry
     estimated scf accuracy    <       0.00000948 Ry

     iteration # 15     ecut=    60.00 Ry     beta= 0.20
     Davidson diagonalization with overlap
     ethr =  2.01E-09,  avg # of iterations =  5.2

     total cpu time spent up to now is      149.2 secs

     total energy              =   -5634.98852785 Ry
     estimated scf accuracy    <       0.00000265 Ry

     iteration # 16     ecut=    60.00 Ry     beta= 0.20
     Davidson diagonalization with overlap
     ethr =  5.62E-10,  avg # of iterations =  2.8

     total cpu time spent up to now is      156.8 secs

     total energy              =   -5634.98852783 Ry
     estimated scf accuracy    <       0.00000063 Ry

     iteration # 17     ecut=    60.00 Ry     beta= 0.20
     Davidson diagonalization with overlap
     ethr =  1.34E-10,  avg # of iterations =  8.4

     total cpu time spent up to now is      169.8 secs

     total energy              =   -5634.98852795 Ry
     estimated scf accuracy    <       0.00000008 Ry

     iteration # 18     ecut=    60.00 Ry     beta= 0.20
     Davidson diagonalization with overlap
     ethr =  1.79E-11,  avg # of iterations =  6.6

     total cpu time spent up to now is      181.8 secs

     total energy              =   -5634.98852792 Ry
     estimated scf accuracy    <       0.00000022 Ry

     iteration # 19     ecut=    60.00 Ry     beta= 0.20
     Davidson diagonalization with overlap
     ethr =  1.79E-11,  avg # of iterations =  3.0

     total cpu time spent up to now is      190.4 secs

     End of self-consistent calculation

          k = 0.0000 0.0000 0.0000 ( 31799 PWs)   bands (ev):

   -42.2108 -41.9624 -41.9378 -41.9234 -41.9037 -41.9031 -41.8904 -41.8804
   -41.8759 -41.8732 -41.8675 -41.8595 -41.8535 -41.8454 -41.8297 -41.8270
   -41.8192 -41.8123 -41.8038 -41.7894 -41.7872 -41.7817 -41.7735 -41.7325
   -18.6109 -18.5869 -18.5810 -18.5269 -18.5149 -18.5121 -18.5086 -18.4508
   -18.4421 -18.4188 -18.4101 -18.3821 -18.3719 -18.3617 -18.3547 -18.3422
   -18.3339 -18.3320 -18.3228 -18.3078 -18.3043 -18.3018 -18.2962 -18.2873
   -18.2783 -18.2756 -18.2644 -18.2609 -18.2567 -18.2543 -18.2420 -18.2230
   -18.2048 -18.1874 -18.1736 -18.1639 -18.1550 -18.1462 -18.1420 -18.1400
   -18.1328 -18.1293 -18.1244 -18.1164 -18.1133 -18.1051 -18.1002 -18.0965
   -18.0778 -18.0663 -18.0584 -18.0534 -18.0498 -18.0413 -18.0348 -18.0187
   -18.0175 -18.0124 -18.0067 -18.0036 -17.9982 -17.9908 -17.9830 -17.9803
   -17.9751 -17.9674 -17.9658 -17.9530 -17.9506 -17.9462 -17.9356 -17.9271
    -1.7270  -0.6778  -0.5932  -0.5522  -0.3995  -0.3491  -0.2716   0.1488
     0.2315   0.2824   0.2955   0.3334   0.3696   0.4220   0.4299   0.4592
     0.4780   0.5592   0.6058   0.6634   0.6977   0.7755   0.8256   0.8845
     0.9533   0.9766   0.9907   1.0106   1.1010   1.1609   1.1980   1.2104
     7.1208   7.2014   7.2315   7.3269   8.2360   8.5911   8.6768   8.6831
     8.6981   8.7756   8.7959   8.8289   8.8493   8.8812   8.9219   9.1193
     9.1450   9.1457   9.1822   9.4483   9.4961   9.5634   9.6051   9.6468
     9.6754   9.7211   9.7749   9.8145   9.8366   9.8489   9.8900   9.9575
    10.0081  10.1304  10.2339  10.2834  10.3583  10.3715  10.4155  10.4192
    10.4324  10.4623  10.4938  10.5080  10.5283  10.5405  10.5703  10.5904
    10.6159  10.6763  10.7161  10.7780  10.8021  10.8532  10.9454  10.9802
    11.0074  11.0146  11.0468  11.0706  11.1129  11.2801  11.3140  11.4099
    11.4421  11.4915  11.5496  11.6444  11.6943  11.7551  11.7607  11.7917
    12.1803  12.2426  12.2852  12.2952  12.4066  12.4186  12.4382  12.4967
    12.5101  12.6528  12.6705  12.7112  12.7510  12.7586  12.7827  12.8008
    12.8332  12.8546  12.9097  12.9689  13.0206  13.1809  13.2698  13.3360
    13.9671  13.9788  13.9879  14.2875  14.3548  14.3924  14.4046  14.4869
    14.6260  15.5992  15.6372  15.7727  16.6344  16.6987  16.7366  16.7496
    16.7890  16.8210  16.8394  16.8489  16.9030  16.9340  16.9555  16.9764
    17.0212  17.0300  17.0798  17.1045  17.1450  17.2103  17.2161  17.2379
    17.2625  17.2940  17.2967  17.3208  17.3496  17.3747  17.3855  17.4132
    17.4317  17.4494  17.4611  17.5263  17.5485  17.5555  17.5698  17.5778
    17.5902  17.6134  17.6230  17.6348  17.6584  17.6671  17.6779  17.6829
    17.7186  17.7205  17.7392

          k = 0.0000 0.0000-0.5000 ( 31864 PWs)   bands (ev):

   -42.2109 -41.9595 -41.9406 -41.9178 -41.9143 -41.9009 -41.8900 -41.8826
   -41.8749 -41.8729 -41.8663 -41.8624 -41.8524 -41.8401 -41.8294 -41.8281
   -41.8173 -41.8141 -41.8011 -41.7934 -41.7844 -41.7826 -41.7749 -41.7326
   -18.6020 -18.5733 -18.5627 -18.5201 -18.5014 -18.4942 -18.4624 -18.4577
   -18.4525 -18.4442 -18.4138 -18.4111 -18.4001 -18.3886 -18.3798 -18.3690
   -18.3614 -18.3539 -18.3392 -18.3287 -18.3156 -18.3115 -18.3054 -18.2971
   -18.2923 -18.2818 -18.2643 -18.2526 -18.2418 -18.2222 -18.2050 -18.1913
   -18.1825 -18.1731 -18.1677 -18.1616 -18.1527 -18.1477 -18.1377 -18.1287
   -18.1271 -18.1196 -18.1083 -18.1055 -18.0960 -18.0872 -18.0832 -18.0758
   -18.0661 -18.0626 -18.0570 -18.0542 -18.0483 -18.0462 -18.0366 -18.0301
   -18.0231 -18.0219 -18.0183 -18.0081 -18.0039 -17.9924 -17.9867 -17.9852
   -17.9808 -17.9707 -17.9666 -17.9597 -17.9581 -17.9537 -17.9484 -17.9321
    -1.4015  -1.3098  -0.3487  -0.2833  -0.2512  -0.1897  -0.1004  -0.0767
    -0.0043   0.0594   0.1012   0.1924   0.3958   0.4353   0.5317   0.5601
     0.6279   0.6441   0.6466   0.6687   0.7250   0.7427   0.7871   0.8159
     0.8483   0.8793   0.9053   0.9655   1.1325   1.1507   1.1750   1.3000
     7.3513   7.4414   7.7554   7.7864   7.8649   7.9102   8.5023   8.5196
     8.7191   8.7594   8.9026   8.9463   8.9584   9.0126   9.0594   9.1056
     9.2031   9.2435   9.2693   9.2859   9.3334   9.3663   9.4535   9.5192
     9.5690   9.6018   9.6663   9.6882   9.7230   9.7466   9.7848   9.8233
     9.9732  10.1958  10.3634  10.3984  10.4219  10.4681  10.5434  10.5610
    10.5689  10.6124  10.6475  10.6602  10.7064  10.7343  10.7446  10.7696
    10.8044  10.8253  10.8716  10.9058  10.9348  11.0192  11.0775  11.0870
    11.1632  11.1715  11.2234  11.2954  11.3525  11.4068  11.4332  11.5011
    11.5368  11.5485  11.5720  11.6040  11.6500  11.6620  11.7084  11.7613
    11.7874  11.8512  11.8732  11.8866  11.9807  12.0315  12.0582  12.0905
    12.1278  12.1448  12.2778  12.3414  12.4862  12.5061  12.5438  12.6017
    12.6302  12.6756  12.7752  12.8213  13.3715  13.3770  13.3905  13.4105
    13.5913  13.6457  14.7884  14.8521  14.9226  15.0147  15.1492  15.2279
    15.3708  15.4683  15.4921  15.5165  15.8445  15.9422  15.9849  16.0343
    16.5760  16.6387  16.7588  16.8076  16.8219  16.8855  16.8931  16.9417
    16.9845  17.0112  17.0262  17.0638  17.0765  17.0890  17.1091  17.1410
    17.1830  17.2437  17.2583  17.2875  17.3161  17.3314  17.3459  17.3542
    17.3581  17.4355  17.4702  17.4829  17.5123  17.5239  17.5437  17.5732
    17.5799  17.6145  17.6262  17.6687  17.6989  17.7138  17.7502  17.7765
    17.7893  17.8077  17.8333

          k = 0.0000-0.5000-0.5000 ( 31736 PWs)   bands (ev):

   -42.2108 -41.9589 -41.9387 -41.9160 -41.9152 -41.9080 -41.8872 -41.8864
   -41.8744 -41.8723 -41.8663 -41.8594 -41.8533 -41.8395 -41.8292 -41.8270
   -41.8162 -41.8139 -41.8005 -41.7929 -41.7857 -41.7836 -41.7752 -41.7326
   -18.5936 -18.5701 -18.5584 -18.5116 -18.5020 -18.4835 -18.4745 -18.4586
   -18.4516 -18.4368 -18.4286 -18.4202 -18.3996 -18.3925 -18.3823 -18.3808
   -18.3715 -18.3654 -18.3458 -18.3372 -18.3213 -18.3121 -18.3029 -18.2976
   -18.2870 -18.2692 -18.2515 -18.2374 -18.2298 -18.2253 -18.2053 -18.1934
   -18.1817 -18.1649 -18.1607 -18.1524 -18.1445 -18.1402 -18.1329 -18.1250
   -18.1162 -18.1143 -18.1110 -18.1046 -18.0965 -18.0912 -18.0860 -18.0837
   -18.0745 -18.0714 -18.0668 -18.0601 -18.0569 -18.0522 -18.0481 -18.0378
   -18.0357 -18.0223 -18.0206 -18.0174 -18.0059 -17.9915 -17.9862 -17.9820
   -17.9711 -17.9692 -17.9648 -17.9614 -17.9540 -17.9433 -17.9374 -17.9278
    -1.2020  -0.9999  -0.9059  -0.7798  -0.1327   0.1012   0.1294   0.1391
     0.1526   0.2112   0.2191   0.2569   0.2908   0.3073   0.3387   0.3505
     0.4099   0.5535   0.5863   0.6247   0.7000   0.7308   0.7619   0.7930
     0.8338   0.9128   0.9710   1.0505   1.1202   1.1833   1.2103   1.2551
     7.4914   7.6706   7.7786   7.9291   8.1442   8.3292   8.4152   8.5791
     8.6090   8.6994   8.7977   8.8111   8.8804   8.9747   9.0628   9.0723
     9.1281   9.1663   9.1976   9.2402   9.3021   9.3614   9.3698   9.3993
     9.4288   9.5703   9.6350   9.7249   9.9054   9.9304   9.9400   9.9913
    10.0908  10.1163  10.2279  10.2934  10.5032  10.5314  10.5615  10.6010
    10.6259  10.6826  10.7118  10.7326  10.7731  10.8334  10.8383  10.9063
    10.9226  10.9278  10.9745  11.0287  11.0518  11.0880  11.1075  11.1407
    11.1759  11.2464  11.2708  11.2890  11.3183  11.3634  11.3808  11.4110
    11.4404  11.4611  11.4952  11.5500  11.5646  11.6237  11.6608  11.6975
    11.7264  11.7653  11.7896  11.8309  11.8534  11.8862  11.9359  11.9704
    12.0015  12.0136  12.0595  12.1741  12.3108  12.3673  12.4562  12.5302
    12.6022  12.6731  12.6987  12.7898  12.8377  12.9045  13.0090  13.0976
    14.6226  14.7972  14.9441  14.9963  15.2357  15.2398  15.2579  15.3702
    15.3811  15.5218  15.5437  15.7603  15.8508  15.8935  15.9467  16.0327
    16.0990  16.1179  16.2296  16.2635  16.3253  16.4047  16.4620  16.5074
    16.6126  16.8261  16.8775  16.9478  16.9672  17.0003  17.0379  17.0676
    17.0904  17.1320  17.1948  17.1985  17.2212  17.2846  17.3033  17.4081
    17.4236  17.4567  17.5004  17.5175  17.5470  17.5815  17.6091  17.6342
    17.6535  17.7005  17.7538  17.7891  17.8127  17.8461  17.8650  17.9094
    17.9392  17.9514  17.9856

          k =-0.5000-0.5000-0.5000 ( 31816 PWs)   bands (ev):

   -42.2108 -41.9589 -41.9383 -41.9158 -41.9123 -41.9082 -41.8920 -41.8850
   -41.8803 -41.8728 -41.8639 -41.8597 -41.8491 -41.8394 -41.8294 -41.8270
   -41.8169 -41.8129 -41.8004 -41.7931 -41.7855 -41.7828 -41.7761 -41.7330
   -18.5960 -18.5656 -18.5504 -18.5187 -18.5001 -18.4852 -18.4803 -18.4623
   -18.4479 -18.4342 -18.4293 -18.4143 -18.3945 -18.3924 -18.3820 -18.3783
   -18.3715 -18.3597 -18.3526 -18.3401 -18.3138 -18.3063 -18.3028 -18.2917
   -18.2903 -18.2648 -18.2587 -18.2487 -18.2370 -18.2227 -18.2140 -18.2021
   -18.1844 -18.1787 -18.1645 -18.1517 -18.1452 -18.1368 -18.1251 -18.1172
   -18.1109 -18.1082 -18.1020 -18.0980 -18.0977 -18.0890 -18.0867 -18.0825
   -18.0761 -18.0748 -18.0710 -18.0642 -18.0592 -18.0526 -18.0517 -18.0447
   -18.0391 -18.0328 -18.0187 -18.0109 -18.0077 -17.9997 -17.9937 -17.9864
   -17.9654 -17.9617 -17.9582 -17.9530 -17.9479 -17.9427 -17.9377 -17.9265
    -1.0149  -0.8350  -0.6873  -0.6659  -0.4961  -0.3502  -0.3036  -0.2556
     0.3238   0.3425   0.3588   0.3882   0.4347   0.4480   0.4538   0.4921
     0.5013   0.5130   0.5325   0.5739   0.6496   0.7129   0.7527   0.8044
     0.9058   0.9389   0.9683   0.9916   1.0592   1.1171   1.1723   1.2042
     7.7914   7.8320   7.9091   7.9312   8.1201   8.2543   8.5590   8.6794
     8.6879   8.7264   8.7567   8.7901   8.8110   8.8641   8.9271   8.9936
     9.0980   9.1425   9.1884   9.2567   9.2897   9.3526   9.4042   9.4653
     9.8129   9.9124   9.9675  10.0195  10.1048  10.1450  10.1508  10.1901
    10.2290  10.2897  10.3093  10.3174  10.3550  10.4021  10.4151  10.4709
    10.4895  10.5489  10.5522  10.5914  10.6358  10.6743  10.6793  10.7000
    10.7337  10.7676  10.8147  10.8329  10.8729  10.8951  10.9430  11.0073
    11.1913  11.2225  11.2422  11.2936  11.3018  11.3439  11.3850  11.4255
    11.4417  11.4554  11.4828  11.5007  11.5567  11.5756  11.6025  11.6500
    11.6694  11.7107  11.7641  11.7975  11.8658  11.8926  11.9576  12.0350
    12.0431  12.1568  12.2174  12.2522  12.2659  12.3690  12.3732  12.4366
    12.4707  12.5078  12.6438  12.7978  12.8176  12.8832  12.9391  13.0563
    15.1770  15.1997  15.2731  15.2913  15.3159  15.3666  15.4133  15.4233
    15.4523  15.5051  15.5866  15.5994  15.6390  15.7112  15.8813  15.9988
    16.0395  16.1045  16.1286  16.1864  16.2288  16.2806  16.3162  16.3602
    16.3907  16.4132  16.4381  16.4756  16.4914  16.5197  16.5533  16.7793
    16.9131  16.9597  16.9994  17.0172  17.0625  17.1040  17.1112  17.1839
    17.2053  17.4492  17.5195  17.5827  17.5893  17.7249  17.7584  17.7764
    17.9354  17.9669  17.9715  17.9907  18.0025  18.0145  18.0362  18.0473
    18.0608  18.0656  18.0892

          k =-0.5000 0.0000 0.0000 ( 31864 PWs)   bands (ev):

   -42.2108 -41.9619 -41.9378 -41.9222 -41.9060 -41.9034 -41.8901 -41.8819
   -41.8755 -41.8729 -41.8681 -41.8614 -41.8498 -41.8451 -41.8299 -41.8271
   -41.8197 -41.8112 -41.8039 -41.7896 -41.7865 -41.7812 -41.7744 -41.7329
   -18.5987 -18.5687 -18.5592 -18.5469 -18.5279 -18.4946 -18.4897 -18.4559
   -18.4460 -18.4281 -18.4133 -18.4038 -18.3868 -18.3802 -18.3734 -18.3628
   -18.3515 -18.3368 -18.3255 -18.3199 -18.3079 -18.2983 -18.2929 -18.2798
   -18.2773 -18.2719 -18.2667 -18.2604 -18.2481 -18.2411 -18.2224 -18.2170
   -18.1975 -18.1875 -18.1817 -18.1629 -18.1568 -18.1458 -18.1422 -18.1344
   -18.1318 -18.1195 -18.1114 -18.1048 -18.1013 -18.0953 -18.0882 -18.0827
   -18.0752 -18.0705 -18.0602 -18.0541 -18.0467 -18.0435 -18.0306 -18.0264
   -18.0205 -18.0136 -18.0101 -18.0049 -17.9947 -17.9887 -17.9879 -17.9840
   -17.9751 -17.9704 -17.9649 -17.9631 -17.9552 -17.9501 -17.9422 -17.9329
    -1.4915  -1.1398  -0.5254  -0.3335  -0.2782  -0.1611  -0.0260  -0.0050
     0.0146   0.0662   0.1278   0.2250   0.3034   0.4220   0.5014   0.5269
     0.6122   0.6229   0.6481   0.6787   0.7429   0.7502   0.7734   0.8085
     0.8713   0.9192   0.9416   1.0513   1.0936   1.1570   1.1850   1.2486
     7.4716   7.5485   7.5663   7.6794   7.7493   8.2156   8.2672   8.4039
     8.5049   8.8351   8.8400   8.8721   8.9614   9.0239   9.0824   9.1430
     9.2378   9.2815   9.3328   9.3971   9.4248   9.4718   9.4951   9.5546
     9.6086   9.6209   9.6851   9.6978   9.7601   9.8356   9.8555   9.9051
    10.0204  10.0667  10.3099  10.3766  10.4137  10.4423  10.4671  10.4911
    10.4964  10.5268  10.5360  10.5698  10.6444  10.6704  10.7236  10.7647
    10.8080  10.8318  10.8550  10.9268  11.0234  11.0581  11.0623  11.1392
    11.1630  11.2811  11.3169  11.3904  11.4272  11.4472  11.4688  11.5216
    11.5542  11.6010  11.6221  11.6495  11.6760  11.7025  11.7454  11.7688
    11.7913  11.8320  11.8543  11.8637  11.8847  11.8970  11.9885  12.0066
    12.1363  12.2187  12.2762  12.3360  12.3951  12.4717  12.5288  12.6001
    12.7134  12.7273  12.7548  12.7937  13.2450  13.3025  13.3105  13.3960
    13.4538  14.0104  14.5392  14.5815  15.1016  15.1536  15.2409  15.2690
    15.3401  15.4191  15.4970  15.5832  15.9665  15.9998  16.1050  16.1165
    16.4344  16.4974  16.7541  16.7756  16.7914  16.8431  16.8793  16.8843
    16.8889  16.9591  16.9768  16.9875  17.0661  17.1471  17.1515  17.2005
    17.2095  17.2194  17.2445  17.2520  17.2774  17.3094  17.3499  17.3720
    17.4403  17.4553  17.4611  17.4890  17.5020  17.5329  17.5511  17.5723
    17.5868  17.6110  17.6366  17.6447  17.6821  17.7023  17.7154  17.7427
    17.7713  17.8022  17.8362

          k = 0.0000-0.5000 0.0000 ( 31864 PWs)   bands (ev):

   -42.2108 -41.9609 -41.9368 -41.9231 -41.9133 -41.9002 -41.8880 -41.8799
   -41.8795 -41.8712 -41.8669 -41.8585 -41.8534 -41.8457 -41.8301 -41.8256
   -41.8174 -41.8135 -41.7999 -41.7941 -41.7846 -41.7839 -41.7737 -41.7326
   -18.5952 -18.5730 -18.5668 -18.5247 -18.5081 -18.4942 -18.4894 -18.4592
   -18.4488 -18.4288 -18.4244 -18.4118 -18.4036 -18.3877 -18.3742 -18.3618
   -18.3563 -18.3491 -18.3366 -18.3294 -18.3141 -18.3047 -18.2895 -18.2849
   -18.2755 -18.2641 -18.2564 -18.2478 -18.2417 -18.2271 -18.2247 -18.2091
   -18.1859 -18.1800 -18.1680 -18.1667 -18.1601 -18.1528 -18.1434 -18.1342
   -18.1269 -18.1183 -18.1115 -18.1066 -18.1018 -18.0881 -18.0853 -18.0824
   -18.0710 -18.0668 -18.0599 -18.0559 -18.0482 -18.0376 -18.0362 -18.0258
   -18.0236 -18.0208 -18.0103 -18.0055 -18.0052 -17.9950 -17.9921 -17.9799
   -17.9769 -17.9715 -17.9689 -17.9581 -17.9539 -17.9527 -17.9444 -17.9273
    -1.4518  -1.2325  -0.3823  -0.2850  -0.2655  -0.1802  -0.1297  -0.0473
    -0.0267   0.0575   0.0877   0.2465   0.3496   0.4108   0.5097   0.5761
     0.5825   0.6418   0.6986   0.7212   0.7463   0.7630   0.7740   0.7911
     0.8460   0.8646   0.9663   1.0674   1.0830   1.1375   1.1619   1.2456
     7.4362   7.4774   7.6054   7.7329   7.8624   8.0868   8.3144   8.4027
     8.7448   8.8636   8.8734   8.9197   8.9341   9.0108   9.0783   9.1223
     9.1497   9.2382   9.3009   9.3136   9.3856   9.4397   9.4812   9.5296
     9.5687   9.6092   9.6332   9.6696   9.7215   9.7651   9.8152   9.8573
     9.9473  10.2534  10.3220  10.3500  10.4272  10.4385  10.4562  10.5174
    10.5419  10.5837  10.5902  10.6388  10.6667  10.7084  10.7413  10.7538
    10.8367  10.8746  10.9174  10.9327  10.9725  11.0056  11.0953  11.1258
    11.1460  11.2695  11.3104  11.3568  11.3828  11.4192  11.4650  11.5045
    11.5542  11.5681  11.6226  11.6380  11.6793  11.6965  11.7359  11.7543
    11.8032  11.8678  11.8851  11.8875  11.9228  11.9538  12.0154  12.0712
    12.1099  12.1563  12.2332  12.3531  12.4244  12.5640  12.5928  12.5981
    12.6429  12.6505  12.6710  12.7822  13.2967  13.3021  13.3778  13.3914
    13.4670  13.8770  14.5950  14.6970  15.0590  15.0721  15.1579  15.3132
    15.3591  15.4071  15.4916  15.5916  15.8410  15.8880  16.1268  16.1979
    16.4965  16.5222  16.7498  16.8335  16.8574  16.8867  16.9208  16.9304
    16.9449  16.9615  17.0121  17.0429  17.0971  17.1316  17.1447  17.1818
    17.1975  17.2325  17.2448  17.2679  17.3053  17.3338  17.3592  17.3637
    17.3714  17.3992  17.4296  17.4637  17.4673  17.5265  17.5444  17.5511
    17.5823  17.6275  17.6505  17.6689  17.6976  17.7149  17.7345  17.7540
    17.7672  17.8055  17.8131

          k =-0.5000 0.0000 0.5000 ( 31736 PWs)   bands (ev):

   -42.2108 -41.9596 -41.9392 -41.9176 -41.9142 -41.9020 -41.8900 -41.8840
   -41.8764 -41.8756 -41.8647 -41.8619 -41.8499 -41.8399 -41.8292 -41.8282
   -41.8167 -41.8144 -41.8008 -41.7934 -41.7841 -41.7820 -41.7757 -41.7330
   -18.5942 -18.5672 -18.5518 -18.5178 -18.5050 -18.4840 -18.4752 -18.4693
   -18.4444 -18.4369 -18.4239 -18.4088 -18.4063 -18.3953 -18.3870 -18.3781
   -18.3751 -18.3668 -18.3456 -18.3303 -18.3253 -18.3102 -18.2979 -18.2872
   -18.2830 -18.2704 -18.2600 -18.2459 -18.2381 -18.2173 -18.2118 -18.1896
   -18.1787 -18.1754 -18.1682 -18.1609 -18.1493 -18.1455 -18.1343 -18.1225
   -18.1159 -18.1139 -18.1060 -18.0994 -18.0942 -18.0887 -18.0836 -18.0765
   -18.0760 -18.0675 -18.0605 -18.0564 -18.0533 -18.0518 -18.0396 -18.0340
   -18.0276 -18.0226 -18.0160 -18.0148 -18.0030 -17.9984 -17.9919 -17.9872
   -17.9835 -17.9724 -17.9676 -17.9634 -17.9535 -17.9474 -17.9338 -17.9269
    -1.1914  -1.0896  -0.8603  -0.6760  -0.0931  -0.0727   0.0730   0.1172
     0.1606   0.1770   0.2454   0.2923   0.3053   0.3464   0.3777   0.4143
     0.4233   0.4885   0.5401   0.6243   0.6688   0.7259   0.7492   0.7791
     0.9277   0.9426   0.9946   1.0606   1.0872   1.1181   1.2497   1.2728
     7.5523   7.6177   7.7485   7.9853   8.1172   8.1822   8.4783   8.5572
     8.6740   8.7230   8.7566   8.8355   8.8692   8.9199   8.9514   9.0792
     9.1113   9.1263   9.1669   9.1881   9.3164   9.3358   9.3924   9.4968
     9.5430   9.6062   9.6345   9.7692   9.9259   9.9668  10.0031  10.0865
    10.1359  10.1729  10.3224  10.3454  10.3976  10.4768  10.5564  10.5946
    10.6326  10.6593  10.6675  10.6993  10.7335  10.7885  10.8108  10.8482
    10.8673  10.9069  10.9900  11.0617  11.0804  11.0933  11.1364  11.1624
    11.1992  11.2303  11.2712  11.2929  11.3312  11.3375  11.3880  11.4297
    11.4818  11.5083  11.5125  11.5388  11.5796  11.6387  11.6608  11.6895
    11.7079  11.7158  11.7593  11.8097  11.8453  11.8571  11.8862  11.9207
    11.9363  11.9678  12.0979  12.2855  12.3219  12.3844  12.5169  12.5696
    12.6284  12.6415  12.7081  12.7474  12.7993  12.8281  12.9743  13.1132
    14.6162  14.8386  14.9260  15.1186  15.1642  15.2048  15.2688  15.3053
    15.4249  15.5110  15.6598  15.6694  15.7926  15.8855  15.9610  15.9993
    16.0906  16.1566  16.1771  16.2197  16.3157  16.4233  16.5449  16.6278
    16.7031  16.8160  16.8503  16.9843  17.0134  17.0312  17.0745  17.0874
    17.1165  17.1347  17.1696  17.1832  17.2589  17.2599  17.3029  17.3527
    17.3728  17.3932  17.4673  17.5120  17.5140  17.5651  17.5848  17.6320
    17.6663  17.6878  17.6988  17.7842  17.8176  17.8416  17.8576  17.8993
    17.9125  17.9515  17.9754

          k =-0.5000 0.5000 0.0000 ( 31736 PWs)   bands (ev):

   -42.2108 -41.9605 -41.9368 -41.9212 -41.9134 -41.9020 -41.8878 -41.8839
   -41.8791 -41.8729 -41.8659 -41.8586 -41.8492 -41.8456 -41.8304 -41.8257
   -41.8181 -41.8123 -41.7999 -41.7942 -41.7846 -41.7828 -41.7747 -41.7329
   -18.5984 -18.5684 -18.5516 -18.5280 -18.4877 -18.4824 -18.4661 -18.4518
   -18.4469 -18.4347 -18.4221 -18.4173 -18.4092 -18.4053 -18.3937 -18.3817
   -18.3638 -18.3623 -18.3573 -18.3435 -18.3336 -18.3127 -18.2978 -18.2884
   -18.2812 -18.2730 -18.2548 -18.2418 -18.2354 -18.2141 -18.1974 -18.1878
   -18.1748 -18.1703 -18.1674 -18.1652 -18.1512 -18.1501 -18.1465 -18.1319
   -18.1257 -18.1244 -18.1163 -18.0964 -18.0894 -18.0850 -18.0760 -18.0726
   -18.0697 -18.0653 -18.0563 -18.0530 -18.0493 -18.0429 -18.0391 -18.0326
   -18.0256 -18.0184 -18.0130 -18.0103 -18.0060 -17.9998 -17.9916 -17.9877
   -17.9759 -17.9743 -17.9686 -17.9652 -17.9579 -17.9561 -17.9407 -17.9293
    -1.2411  -1.0253  -0.8563  -0.6350  -0.1457  -0.1081   0.0128   0.0958
     0.1363   0.2286   0.2571   0.2677   0.3085   0.3619   0.3915   0.4109
     0.4197   0.4800   0.5387   0.6360   0.6995   0.7445   0.7785   0.8435
     0.8782   0.9685   1.0282   1.0394   1.0782   1.1162   1.2147   1.2585
     7.5540   7.6827   7.8255   7.9030   8.1530   8.1906   8.3934   8.5547
     8.6210   8.6376   8.7205   8.7761   8.8430   8.8933   8.9346   9.0155
     9.0710   9.1649   9.1936   9.2217   9.3219   9.3441   9.4412   9.5160
     9.6041   9.6733   9.6922   9.7613   9.8786   9.9466   9.9570  10.1637
    10.1885  10.2210  10.2787  10.3924  10.4166  10.4327  10.4859  10.5618
    10.6196  10.6357  10.6525  10.6831  10.7397  10.7883  10.8529  10.8918
    10.9013  10.9275  11.0051  11.0484  11.0757  11.1320  11.1523  11.1887
    11.2319  11.2411  11.2673  11.2795  11.3278  11.4023  11.4147  11.4663
    11.4856  11.4900  11.5153  11.5452  11.6074  11.6243  11.6584  11.6696
    11.6971  11.7253  11.7869  11.7964  11.8483  11.8795  11.9137  11.9344
    11.9948  12.0476  12.1265  12.2170  12.3555  12.4296  12.4553  12.4824
    12.5779  12.6121  12.6646  12.7179  12.7473  12.7763  12.9288  13.0390
    14.6900  14.7712  14.8297  14.9575  15.0774  15.2570  15.2784  15.4001
    15.4475  15.6691  15.6871  15.7155  15.7771  15.8281  15.9477  15.9513
    16.0506  16.1419  16.2112  16.3061  16.3328  16.3855  16.6262  16.6360
    16.8742  16.9206  16.9252  16.9772  16.9984  17.0446  17.0517  17.0646
    17.0831  17.1149  17.1496  17.1830  17.2633  17.2772  17.3129  17.3514
    17.3609  17.3968  17.4111  17.5194  17.5253  17.5564  17.5656  17.5891
    17.6083  17.6517  17.6837  17.7045  17.7657  17.7749  17.8651  17.8811
    17.9191  17.9607  17.9651

     the Fermi energy is    15.7386 ev

!    total energy              =   -5634.98852793 Ry
     total all-electron energy =    -48379.842152 Ry
     estimated scf accuracy    <          1.0E-08 Ry
     smearing contrib. (-TS)   =      -0.00245465 Ry
     internal energy E=F+TS    =   -5634.98607329 Ry

     The total energy is F=E-TS. E is the sum of the following terms:
     one-electron contribution =    -928.70762237 Ry
     hartree contribution      =     759.89491081 Ry
     xc contribution           =    -654.97461980 Ry
     ewald contribution        =   -2710.82163489 Ry
     one-center paw contrib.   =   -2100.37710704 Ry

     convergence has been achieved in  19 iterations
 
     init_run     :      3.53s CPU      3.72s WALL (       1 calls)
     electrons    :    182.27s CPU    186.10s WALL (       1 calls)

     Called by init_run:
     wfcinit      :      3.08s CPU      3.19s WALL (       1 calls)
     potinit      :      0.21s CPU      0.22s WALL (       1 calls)
     hinit0       :      0.12s CPU      0.15s WALL (       1 calls)

     Called by electrons:
     c_bands      :    160.70s CPU    163.55s WALL (      19 calls)
     sum_band     :     15.74s CPU     16.25s WALL (      19 calls)
     v_of_rho     :      0.70s CPU      0.72s WALL (      20 calls)
     newd         :      1.24s CPU      1.53s WALL (      20 calls)
     PAW_pot      :      3.16s CPU      3.24s WALL (      20 calls)
     mix_rho      :      0.95s CPU      1.01s WALL (      19 calls)

     Called by c_bands:
     init_us_2    :      1.53s CPU      1.56s WALL (      78 calls)
     init_us_2:cp :      1.53s CPU      1.56s WALL (      78 calls)
     cegterg      :    142.88s CPU    145.61s WALL (      38 calls)

     Called by *egterg:
     cdiaghg      :     19.33s CPU     19.71s WALL (     226 calls)
     h_psi        :     65.12s CPU     66.15s WALL (     228 calls)
     s_psi        :     16.86s CPU     17.00s WALL (     228 calls)
     g_psi        :      0.31s CPU      0.31s WALL (     188 calls)

     Called by h_psi:
     h_psi:calbec :     16.97s CPU     17.12s WALL (     228 calls)
     vloc_psi     :     30.71s CPU     31.21s WALL (     228 calls)
     add_vuspsi   :     16.93s CPU     17.12s WALL (     228 calls)

     General routines
     calbec       :     23.32s CPU     23.52s WALL (     266 calls)
     fft          :      0.32s CPU      0.36s WALL (     220 calls)
     ffts         :      0.48s CPU      0.49s WALL (     395 calls)
     fftw         :     31.32s CPU     31.82s WALL (   66290 calls)
 
     Parallel routines
 
     PWSCF        :   3m 6.04s CPU   3m10.48s WALL

 
   This run was terminated on:  17:39:21  11May2026            

=------------------------------------------------------------------------------=
   JOB DONE.
=------------------------------------------------------------------------------=
