
     Program PWSCF v.7.1 starts on 11May2026 at 17:36:10 

     This program is part of the open-source Quantum ESPRESSO suite
     for quantum simulation of materials; please cite
         "P. Giannozzi et al., J. Phys.:Condens. Matter 21 395502 (2009);
         "P. Giannozzi et al., J. Phys.:Condens. Matter 29 465901 (2017);
         "P. Giannozzi et al., J. Chem. Phys. 152 154105 (2020);
          URL http://www.quantum-espresso.org", 
     in publications or presentations arising from this work. More details at
     http://www.quantum-espresso.org/quote

     Parallel version (MPI & OpenMP), running on      32 processor cores
     Number of MPI processes:                32
     Threads/MPI process:                     1

     MPI processes distributed on     1 nodes
     91219 MiB available memory on the printing compute node when the environment starts
 
     Reading input from TiAlN_x025finalrelaxedresult84159875.in

     Current dimensions of program PWSCF are:
     Max number of different atomic species (ntypx) = 10
     Max number of k-points (npk) = 150000
     Max angular momentum in pseudopotentials (lmaxx) =  4
     file Al.pbe-n-kjpaw_psl.1.0.0.UPF: wavefunction(s)  3S 3P renormalized
     file N.pbe-n-kjpaw_psl.1.0.0.UPF: wavefunction(s)  2S renormalized
     file Ti.pbe-spn-kjpaw_psl.1.0.0.UPF: wavefunction(s)  3S 3P 3D renormalized
 
     K-points division:     npool     =       4
     R & G space division:  proc/nbgrp/npool/nimage =       8
     Subspace diagonalization in iterative solution of the eigenvalue problem:
     one sub-group per band group will be used
     scalapack distributed-memory algorithm (size of sub-group:  2*  2 procs)

 
     Parallelization info
     --------------------
     sticks:   dense  smooth     PW     G-vecs:    dense   smooth      PW
     Min         604     604    164                31522    31522    4504
     Max         606     606    165                31524    31524    4508
     Sum        4841    4841   1313               252183   252183   36041
 
     Using Slab Decomposition
 


     bravais-lattice index     =            0
     lattice parameter (alat)  =      15.9039  a.u.
     unit-cell volume          =    4022.6463 (a.u.)^3
     number of atoms/cell      =           64
     number of atomic types    =            3
     number of electrons       =       472.00
     number of Kohn-Sham states=          283
     kinetic-energy cutoff     =      60.0000  Ry
     charge density cutoff     =     240.0000  Ry
     scf convergence threshold =      1.0E-08
     mixing beta               =       0.2000
     number of iterations used =            8  local-TF  mixing
     Exchange-correlation= SLA  PW   PBX  PBC
                           (   1   4   3   4   0   0   0)

     celldm(1)=  15.903911  celldm(2)=   0.000000  celldm(3)=   0.000000
     celldm(4)=   0.000000  celldm(5)=   0.000000  celldm(6)=   0.000000

     crystal axes: (cart. coord. in units of alat)
               a(1) = (   1.000000   0.000000   0.000000 )  
               a(2) = (   0.000000   1.000000   0.000000 )  
               a(3) = (   0.000000   0.000000   1.000000 )  

     reciprocal axes: (cart. coord. in units 2 pi/alat)
               b(1) = (  1.000000  0.000000  0.000000 )  
               b(2) = (  0.000000  1.000000  0.000000 )  
               b(3) = (  0.000000  0.000000  1.000000 )  


     PseudoPot. # 1 for Al read from file:
     ../../../pseudo/Al.pbe-n-kjpaw_psl.1.0.0.UPF
     MD5 check sum: 502b6b27b9c6270cab5dd1084b96fa6d
     Pseudo is Projector augmented-wave + core cor, Zval =  3.0
     Generated using &quot;atomic&quot; code by A. Dal Corso  v.6.3
     Shape of augmentation charge: PSQ
     Using radial grid of 1135 points,  6 beta functions with: 
                l(1) =   0
                l(2) =   0
                l(3) =   1
                l(4) =   1
                l(5) =   2
                l(6) =   2
     Q(r) pseudized with 0 coefficients 


     PseudoPot. # 2 for N  read from file:
     ../../../pseudo/N.pbe-n-kjpaw_psl.1.0.0.UPF
     MD5 check sum: 14c48229446f9f2d411169a3abcbc3fa
     Pseudo is Projector augmented-wave + core cor, Zval =  5.0
     Generated using &quot;atomic&quot; code by A. Dal Corso  v.6.3
     Shape of augmentation charge: PSQ
     Using radial grid of 1085 points,  4 beta functions with: 
                l(1) =   0
                l(2) =   0
                l(3) =   1
                l(4) =   1
     Q(r) pseudized with 0 coefficients 


     PseudoPot. # 3 for Ti read from file:
     ../../../pseudo/Ti.pbe-spn-kjpaw_psl.1.0.0.UPF
     MD5 check sum: 01f69b0d8ba4438b2e03ac6ea4af1c0b
     Pseudo is Projector augmented-wave + core cor, Zval = 12.0
     Generated using &quot;atomic&quot; code by A. Dal Corso  v.6.2.2
     Shape of augmentation charge: PSQ
     Using radial grid of 1177 points,  6 beta functions with: 
                l(1) =   0
                l(2) =   0
                l(3) =   1
                l(4) =   1
                l(5) =   2
                l(6) =   2
     Q(r) pseudized with 0 coefficients 


     atomic species   valence    mass     pseudopotential
        Al             3.00    26.98200     Al( 1.00)
        N              5.00    14.00700     N ( 1.00)
        Ti            12.00    47.86700     Ti( 1.00)

     No symmetry found



   Cartesian axes

     site n.     atom                  positions (alat units)
         1           Al  tau(   1) = (   0.0037028  -0.0000813   0.0012735  )
         2           N   tau(   2) = (   0.2424983  -0.0048386  -0.0084775  )
         3           Al  tau(   3) = (   0.0004884   0.2436041   0.2511531  )
         4           N   tau(   4) = (   0.2508174   0.2490934   0.2545991  )
         5           Ti  tau(   5) = (   0.2543465  -0.0074877   0.2501244  )
         6           N   tau(   6) = (   0.0015530   0.0070611   0.2499450  )
         7           Ti  tau(   7) = (   0.2529941   0.2521751   0.0006645  )
         8           N   tau(   8) = (   0.0026958   0.2411590   0.0094095  )
         9           Al  tau(   9) = (   0.0029663   0.0039111   0.4981506  )
        10           N   tau(  10) = (   0.2424775   0.0050712   0.5067387  )
        11           Ti  tau(  11) = (  -0.0080774   0.2525497   0.7494700  )
        12           N   tau(  12) = (   0.2491587   0.2508604   0.7443082  )
        13           Al  tau(  13) = (   0.2446852  -0.0006044   0.7473935  )
        14           N   tau(  14) = (   0.0070728   0.0016617   0.7482485  )
        15           Al  tau(  15) = (   0.2484337   0.2482201   0.4999037  )
        16           N   tau(  16) = (   0.0061382   0.2426389   0.4916956  )
        17           Ti  tau(  17) = (  -0.0027325   0.4991797   0.0027135  )
        18           N   tau(  18) = (   0.2480508   0.5054377  -0.0093238  )
        19           Ti  tau(  19) = (   0.0006176   0.7449602   0.2519368  )
        20           N   tau(  20) = (   0.2499105   0.7482439   0.2382092  )
        21           Ti  tau(  21) = (   0.2464036   0.5060082   0.2506759  )
        22           N   tau(  22) = (   0.0004021   0.4861045   0.2492441  )
        23           Al  tau(  23) = (   0.2471457   0.7493890  -0.0083388  )
        24           N   tau(  24) = (   0.0067240   0.7565285   0.0005902  )
        25           Ti  tau(  25) = (  -0.0009578   0.5016094   0.4961613  )
        26           N   tau(  26) = (   0.2485768   0.4915701   0.5081433  )
        27           Ti  tau(  27) = (  -0.0079009   0.7448260   0.7452472  )
        28           N   tau(  28) = (   0.2492023   0.7465766   0.7520664  )
        29           Al  tau(  29) = (   0.2502771   0.4991211   0.7475923  )
        30           N   tau(  30) = (   0.0080610   0.4979831   0.7483649  )
        31           Ti  tau(  31) = (   0.2501775   0.7455360   0.4948637  )
        32           N   tau(  32) = (   0.0016228   0.7591660   0.4978088  )
        33           Ti  tau(  33) = (   0.5012542  -0.0007383   0.0008539  )
        34           N   tau(  34) = (   0.7594551  -0.0007502  -0.0004748  )
        35           Al  tau(  35) = (   0.4976021   0.2507947   0.2533318  )
        36           N   tau(  36) = (   0.7461876   0.2493703   0.2505601  )
        37           Ti  tau(  37) = (   0.7436740  -0.0056203   0.2482669  )
        38           N   tau(  38) = (   0.4983947   0.0099898   0.2498026  )
        39           Ti  tau(  39) = (   0.7446775   0.2504815  -0.0041676  )
        40           N   tau(  40) = (   0.4961801   0.2485989   0.0104020  )
        41           Ti  tau(  41) = (   0.5004374  -0.0038727   0.4980055  )
        42           N   tau(  42) = (   0.7585686   0.0008158   0.4994073  )
        43           Ti  tau(  43) = (   0.5065097   0.2461268   0.7486008  )
        44           N   tau(  44) = (   0.7482027   0.2504448   0.7472803  )
        45           Ti  tau(  45) = (   0.7462850   0.0002022   0.7492544  )
        46           N   tau(  46) = (   0.4873656   0.0010687   0.7480896  )
        47           Ti  tau(  47) = (   0.7461708   0.2513382   0.5034441  )
        48           N   tau(  48) = (   0.4911376   0.2480980   0.4912533  )
        49           Ti  tau(  49) = (   0.5016022   0.4992729   0.0011362  )
        50           N   tau(  50) = (   0.7494605   0.4997234  -0.0010595  )
        51           Ti  tau(  51) = (   0.4978288   0.7489433   0.2505649  )
        52           N   tau(  52) = (   0.7475005   0.7481475   0.2485646  )
        53           Ti  tau(  53) = (   0.7513939   0.5041765   0.2484443  )
        54           N   tau(  54) = (   0.4984539   0.4892095   0.2496984  )
        55           Ti  tau(  55) = (   0.7471985   0.7472539  -0.0013454  )
        56           N   tau(  56) = (   0.4903699   0.7488260   0.0010825  )
        57           Ti  tau(  57) = (   0.4999844   0.5027316   0.4981187  )
        58           N   tau(  58) = (   0.7490932   0.4980690   0.5001238  )
        59           Ti  tau(  59) = (   0.5059584   0.7511476   0.7467302  )
        60           N   tau(  60) = (   0.7477886   0.7475594   0.7485824  )
        61           Ti  tau(  61) = (   0.7483549   0.4989606   0.7486871  )
        62           N   tau(  62) = (   0.4905068   0.4974327   0.7483970  )
        63           Ti  tau(  63) = (   0.7475307   0.7462120   0.5004114  )
        64           N   tau(  64) = (   0.4974899   0.7489014   0.4975473  )

     number of k points=     8  Gaussian smearing, width (Ry)=  0.0050
                       cart. coord. in units 2pi/alat
        k(    1) = (   0.0000000   0.0000000   0.0000000), wk =   0.2500000
        k(    2) = (   0.0000000   0.0000000  -0.5000000), wk =   0.2500000
        k(    3) = (   0.0000000  -0.5000000  -0.5000000), wk =   0.2500000
        k(    4) = (  -0.5000000  -0.5000000  -0.5000000), wk =   0.2500000
        k(    5) = (  -0.5000000   0.0000000   0.0000000), wk =   0.2500000
        k(    6) = (   0.0000000  -0.5000000   0.0000000), wk =   0.2500000
        k(    7) = (  -0.5000000   0.0000000   0.5000000), wk =   0.2500000
        k(    8) = (  -0.5000000   0.5000000   0.0000000), wk =   0.2500000

     Dense  grid:   252183 G-vectors     FFT dimensions: (  80,  80,  80)

     Estimated max dynamical RAM per process >     233.87 MB

     Estimated total dynamical RAM >       7.13 GB

     Check: negative core charge=   -0.000028

     Initial potential from superposition of free atoms

     starting charge     471.9460, renormalised to     472.0000
     Starting wfcs are  400 randomized atomic wfcs
     Checking if some PAW data can be deallocated... 

     total cpu time spent up to now is        4.0 secs

     Self-consistent Calculation

     iteration #  1     ecut=    60.00 Ry     beta= 0.20
     Davidson diagonalization with overlap
     ethr =  1.00E-02,  avg # of iterations =  2.0

     total cpu time spent up to now is       11.8 secs

     total energy              =   -5637.08038142 Ry
     estimated scf accuracy    <      20.77714336 Ry

     iteration #  2     ecut=    60.00 Ry     beta= 0.20
     Davidson diagonalization with overlap
     ethr =  4.40E-03,  avg # of iterations =  1.0

     total cpu time spent up to now is       18.1 secs

     total energy              =   -5631.92962943 Ry
     estimated scf accuracy    <      11.88360626 Ry

     iteration #  3     ecut=    60.00 Ry     beta= 0.20
     Davidson diagonalization with overlap
     ethr =  2.52E-03,  avg # of iterations =  3.9

     total cpu time spent up to now is       27.3 secs

     total energy              =   -5634.88636457 Ry
     estimated scf accuracy    <       0.95164819 Ry

     iteration #  4     ecut=    60.00 Ry     beta= 0.20
     Davidson diagonalization with overlap
     ethr =  2.02E-04,  avg # of iterations =  4.0

     total cpu time spent up to now is       35.6 secs

     total energy              =   -5634.97473711 Ry
     estimated scf accuracy    <       0.25480532 Ry

     iteration #  5     ecut=    60.00 Ry     beta= 0.20
     Davidson diagonalization with overlap
     ethr =  5.40E-05,  avg # of iterations =  4.4

     total cpu time spent up to now is       45.3 secs

     total energy              =   -5634.90519054 Ry
     estimated scf accuracy    <       0.33072139 Ry

     iteration #  6     ecut=    60.00 Ry     beta= 0.20
     Davidson diagonalization with overlap
     ethr =  5.40E-05,  avg # of iterations =  8.0

     total cpu time spent up to now is       58.2 secs

     total energy              =   -5634.98425041 Ry
     estimated scf accuracy    <       0.16339697 Ry

     iteration #  7     ecut=    60.00 Ry     beta= 0.20
     Davidson diagonalization with overlap
     ethr =  3.46E-05,  avg # of iterations =  2.0

     total cpu time spent up to now is       65.5 secs

     total energy              =   -5634.98912803 Ry
     estimated scf accuracy    <       0.02797784 Ry

     iteration #  8     ecut=    60.00 Ry     beta= 0.20
     Davidson diagonalization with overlap
     c_bands:  3 eigenvalues not converged
     ethr =  5.93E-06,  avg # of iterations = 12.9

     total cpu time spent up to now is       80.2 secs

     total energy              =   -5634.99493202 Ry
     estimated scf accuracy    <       0.00134129 Ry

     iteration #  9     ecut=    60.00 Ry     beta= 0.20
     Davidson diagonalization with overlap
     c_bands:  2 eigenvalues not converged
     ethr =  2.84E-07,  avg # of iterations = 14.0

     total cpu time spent up to now is       95.0 secs

     total energy              =   -5634.99484491 Ry
     estimated scf accuracy    <       0.00170221 Ry

     iteration # 10     ecut=    60.00 Ry     beta= 0.20
     Davidson diagonalization with overlap
     c_bands:  2 eigenvalues not converged
     ethr =  2.84E-07,  avg # of iterations =  5.5

     total cpu time spent up to now is      103.6 secs

     total energy              =   -5634.99479717 Ry
     estimated scf accuracy    <       0.00031419 Ry

     iteration # 11     ecut=    60.00 Ry     beta= 0.20
     Davidson diagonalization with overlap
     ethr =  6.66E-08,  avg # of iterations =  9.4

     total cpu time spent up to now is      117.1 secs

     total energy              =   -5634.99490714 Ry
     estimated scf accuracy    <       0.00040450 Ry

     iteration # 12     ecut=    60.00 Ry     beta= 0.20
     Davidson diagonalization with overlap
     ethr =  6.66E-08,  avg # of iterations =  1.5

     total cpu time spent up to now is      124.2 secs

     total energy              =   -5634.99490946 Ry
     estimated scf accuracy    <       0.00014014 Ry

     iteration # 13     ecut=    60.00 Ry     beta= 0.20
     Davidson diagonalization with overlap
     ethr =  2.97E-08,  avg # of iterations =  1.2

     total cpu time spent up to now is      130.9 secs

     total energy              =   -5634.99488403 Ry
     estimated scf accuracy    <       0.00008735 Ry

     iteration # 14     ecut=    60.00 Ry     beta= 0.20
     Davidson diagonalization with overlap
     ethr =  1.85E-08,  avg # of iterations =  4.2

     total cpu time spent up to now is      139.9 secs

     total energy              =   -5634.99490182 Ry
     estimated scf accuracy    <       0.00000146 Ry

     iteration # 15     ecut=    60.00 Ry     beta= 0.20
     Davidson diagonalization with overlap
     ethr =  3.09E-10,  avg # of iterations =  7.2

     total cpu time spent up to now is      153.1 secs

     total energy              =   -5634.99490248 Ry
     estimated scf accuracy    <       0.00000294 Ry

     iteration # 16     ecut=    60.00 Ry     beta= 0.20
     Davidson diagonalization with overlap
     ethr =  3.09E-10,  avg # of iterations =  4.2

     total cpu time spent up to now is      163.3 secs

     total energy              =   -5634.99490253 Ry
     estimated scf accuracy    <       0.00000050 Ry

     iteration # 17     ecut=    60.00 Ry     beta= 0.20
     Davidson diagonalization with overlap
     ethr =  1.06E-10,  avg # of iterations =  4.5

     total cpu time spent up to now is      172.9 secs

     total energy              =   -5634.99490263 Ry
     estimated scf accuracy    <       0.00000014 Ry

     iteration # 18     ecut=    60.00 Ry     beta= 0.20
     Davidson diagonalization with overlap
     ethr =  2.87E-11,  avg # of iterations =  3.1

     total cpu time spent up to now is      181.5 secs

     total energy              =   -5634.99490264 Ry
     estimated scf accuracy    <       0.00000002 Ry

     iteration # 19     ecut=    60.00 Ry     beta= 0.20
     Davidson diagonalization with overlap
     ethr =  5.11E-12,  avg # of iterations =  9.2

     total cpu time spent up to now is      193.8 secs

     total energy              =   -5634.99490263 Ry
     estimated scf accuracy    <       0.00000003 Ry

     iteration # 20     ecut=    60.00 Ry     beta= 0.20
     Davidson diagonalization with overlap
     ethr =  5.11E-12,  avg # of iterations =  3.0

     total cpu time spent up to now is      202.4 secs

     End of self-consistent calculation

          k = 0.0000 0.0000 0.0000 ( 31463 PWs)   bands (ev):

   -42.0747 -41.8102 -41.7867 -41.7696 -41.7558 -41.7540 -41.7435 -41.7320
   -41.7277 -41.7260 -41.7240 -41.7077 -41.7043 -41.6911 -41.6783 -41.6711
   -41.6666 -41.6567 -41.6465 -41.6373 -41.6326 -41.6297 -41.6169 -41.5974
   -18.4766 -18.4534 -18.4464 -18.3897 -18.3806 -18.3763 -18.3735 -18.3125
   -18.3031 -18.2798 -18.2713 -18.2425 -18.2309 -18.2196 -18.2109 -18.2002
   -18.1924 -18.1899 -18.1812 -18.1668 -18.1608 -18.1591 -18.1544 -18.1444
   -18.1348 -18.1311 -18.1222 -18.1193 -18.1129 -18.1072 -18.0972 -18.0751
   -18.0583 -18.0400 -18.0270 -18.0170 -18.0078 -17.9994 -17.9969 -17.9900
   -17.9851 -17.9799 -17.9763 -17.9697 -17.9653 -17.9568 -17.9524 -17.9462
   -17.9275 -17.9164 -17.9109 -17.9036 -17.9005 -17.8955 -17.8867 -17.8709
   -17.8661 -17.8620 -17.8544 -17.8509 -17.8464 -17.8399 -17.8314 -17.8294
   -17.8209 -17.8175 -17.8129 -17.8023 -17.7992 -17.7963 -17.7846 -17.7800
    -1.6397  -0.5887  -0.4919  -0.4490  -0.3056  -0.2473  -0.1749   0.2404
     0.3333   0.3851   0.4044   0.4417   0.4751   0.5192   0.5410   0.5695
     0.5813   0.6616   0.7009   0.7647   0.8116   0.8797   0.9378   0.9931
     1.0520   1.0861   1.1133   1.1331   1.2055   1.2737   1.2969   1.3280
     7.2242   7.2919   7.3071   7.4196   8.3460   8.6903   8.7731   8.7793
     8.7983   8.8738   8.8889   8.9232   8.9406   8.9811   9.0435   9.2142
     9.2443   9.2481   9.2746   9.5336   9.6068   9.6725   9.7165   9.7389
     9.7842   9.8242   9.8813   9.9153   9.9381   9.9584   9.9898  10.0606
    10.1124  10.2391  10.3338  10.3881  10.4615  10.4788  10.5126  10.5205
    10.5261  10.5686  10.5891  10.6099  10.6235  10.6444  10.6740  10.6920
    10.7114  10.7753  10.8192  10.8878  10.9029  10.9585  11.0617  11.0920
    11.1149  11.1208  11.1644  11.1897  11.2260  11.3889  11.4301  11.5214
    11.5561  11.5977  11.6590  11.7497  11.8022  11.8671  11.8752  11.9011
    12.3033  12.3638  12.4034  12.4214  12.5220  12.5422  12.5592  12.6189
    12.6247  12.7683  12.7851  12.8291  12.8782  12.8798  12.9039  12.9283
    12.9566  12.9777  13.0315  13.0863  13.1374  13.2850  13.3773  13.4421
    14.0949  14.1086  14.1166  14.3955  14.4730  14.5042  14.5157  14.6090
    14.7576  15.7282  15.7690  15.9049  16.7777  16.8491  16.8759  16.8982
    16.9356  16.9672  16.9865  16.9966  17.0523  17.0848  17.1107  17.1270
    17.1633  17.1801  17.2321  17.2559  17.2896  17.3628  17.3649  17.3903
    17.4162  17.4460  17.4522  17.4707  17.5042  17.5297  17.5362  17.5674
    17.5883  17.6031  17.6187  17.6805  17.6991  17.7111  17.7255  17.7395
    17.7469  17.7710  17.7845  17.7891  17.8157  17.8232  17.8379  17.8424
    17.8747  17.8773  17.8952

          k = 0.0000 0.0000-0.5000 ( 31624 PWs)   bands (ev):

   -42.0747 -41.8054 -41.7917 -41.7666 -41.7603 -41.7547 -41.7444 -41.7316
   -41.7288 -41.7272 -41.7223 -41.7061 -41.7053 -41.6877 -41.6787 -41.6705
   -41.6666 -41.6557 -41.6455 -41.6380 -41.6338 -41.6296 -41.6182 -41.5975
   -18.4677 -18.4383 -18.4296 -18.3843 -18.3644 -18.3573 -18.3250 -18.3190
   -18.3155 -18.3059 -18.2752 -18.2722 -18.2600 -18.2497 -18.2379 -18.2278
   -18.2206 -18.2126 -18.1965 -18.1871 -18.1709 -18.1690 -18.1621 -18.1522
   -18.1502 -18.1399 -18.1227 -18.1080 -18.0953 -18.0761 -18.0586 -18.0473
   -18.0383 -18.0267 -18.0243 -18.0139 -18.0032 -18.0001 -17.9897 -17.9807
   -17.9770 -17.9706 -17.9607 -17.9555 -17.9451 -17.9373 -17.9324 -17.9268
   -17.9170 -17.9144 -17.9087 -17.9052 -17.8998 -17.8969 -17.8880 -17.8831
   -17.8750 -17.8707 -17.8643 -17.8559 -17.8541 -17.8425 -17.8343 -17.8322
   -17.8282 -17.8217 -17.8153 -17.8117 -17.8051 -17.8041 -17.7986 -17.7842
    -1.2921  -1.2394  -0.2341  -0.1869  -0.1638  -0.0861   0.0142   0.0169
     0.0943   0.1611   0.1982   0.2919   0.5009   0.5351   0.6443   0.6761
     0.7272   0.7530   0.7566   0.7791   0.8110   0.8440   0.9060   0.9211
     0.9553   0.9891   1.0135   1.0629   1.2330   1.2569   1.2966   1.4208
     7.4598   7.5332   7.8379   7.8638   7.9482   8.0210   8.5993   8.6298
     8.8207   8.8654   9.0092   9.0450   9.0829   9.1221   9.1581   9.1979
     9.2940   9.3520   9.3649   9.3824   9.4362   9.4643   9.5536   9.6118
     9.6727   9.7053   9.7763   9.7963   9.8151   9.8457   9.8972   9.9310
    10.0715  10.2754  10.4691  10.5089  10.5318  10.5726  10.6456  10.6664
    10.6740  10.7109  10.7470  10.7653  10.8125  10.8375  10.8534  10.8812
    10.9136  10.9285  10.9780  10.9994  11.0379  11.1197  11.1820  11.1944
    11.2706  11.2935  11.3317  11.4038  11.4501  11.5126  11.5557  11.6175
    11.6506  11.6530  11.6882  11.7112  11.7568  11.7733  11.8208  11.8708
    11.8983  11.9558  11.9843  12.0070  12.0922  12.1452  12.1731  12.2050
    12.2423  12.2622  12.3909  12.4536  12.6173  12.6345  12.6730  12.7081
    12.7443  12.8051  12.8996  12.9427  13.4943  13.4986  13.5076  13.5354
    13.7090  13.7445  14.9204  14.9730  15.0467  15.1466  15.2830  15.3480
    15.4997  15.5934  15.6222  15.6367  15.9813  16.0689  16.1248  16.1799
    16.7225  16.7795  16.9055  16.9553  16.9705  17.0368  17.0391  17.0989
    17.1391  17.1631  17.1755  17.2107  17.2277  17.2307  17.2572  17.2944
    17.3348  17.4007  17.4153  17.4436  17.4675  17.4849  17.5000  17.5044
    17.5151  17.5904  17.6227  17.6373  17.6644  17.6808  17.6980  17.7292
    17.7366  17.7707  17.7820  17.8297  17.8512  17.8692  17.9092  17.9336
    17.9514  17.9738  17.9917

          k = 0.0000-0.5000-0.5000 ( 31480 PWs)   bands (ev):

   -42.0747 -41.8044 -41.7887 -41.7708 -41.7607 -41.7579 -41.7400 -41.7340
   -41.7302 -41.7269 -41.7224 -41.7074 -41.7021 -41.6873 -41.6791 -41.6680
   -41.6668 -41.6543 -41.6452 -41.6375 -41.6353 -41.6307 -41.6186 -41.5975
   -18.4591 -18.4354 -18.4249 -18.3748 -18.3652 -18.3454 -18.3380 -18.3206
   -18.3122 -18.2982 -18.2900 -18.2806 -18.2618 -18.2527 -18.2418 -18.2406
   -18.2318 -18.2254 -18.2044 -18.1951 -18.1793 -18.1695 -18.1601 -18.1546
   -18.1423 -18.1259 -18.1083 -18.0928 -18.0832 -18.0803 -18.0552 -18.0479
   -18.0336 -18.0176 -18.0149 -18.0057 -17.9984 -17.9942 -17.9851 -17.9783
   -17.9685 -17.9633 -17.9624 -17.9554 -17.9478 -17.9423 -17.9356 -17.9325
   -17.9242 -17.9215 -17.9185 -17.9109 -17.9095 -17.9039 -17.9009 -17.8906
   -17.8848 -17.8744 -17.8685 -17.8627 -17.8541 -17.8429 -17.8349 -17.8302
   -17.8242 -17.8206 -17.8111 -17.8079 -17.8037 -17.7928 -17.7881 -17.7772
    -1.0838  -0.9446  -0.8103  -0.6751  -0.0063   0.2045   0.2248   0.2336
     0.2531   0.3082   0.3331   0.3658   0.3985   0.4041   0.4391   0.4596
     0.5075   0.6387   0.6838   0.7375   0.8077   0.8402   0.8770   0.9058
     0.9382   1.0264   1.0581   1.1369   1.2424   1.2942   1.3342   1.3662
     7.5931   7.7668   7.8664   8.0145   8.2302   8.4327   8.5227   8.6825
     8.7164   8.8098   8.9003   8.9155   8.9879   9.0931   9.1706   9.1864
     9.2344   9.2628   9.2994   9.3289   9.3933   9.4557   9.4780   9.4789
     9.5305   9.6706   9.7451   9.8280  10.0012  10.0247  10.0444  10.0880
    10.1947  10.2253  10.3323  10.3920  10.6007  10.6369  10.6606  10.7037
    10.7356  10.7876  10.8136  10.8352  10.8766  10.9373  10.9460  11.0093
    11.0273  11.0364  11.0854  11.1371  11.1593  11.1905  11.2159  11.2469
    11.2846  11.3559  11.3842  11.3954  11.4293  11.4640  11.4870  11.5264
    11.5564  11.5773  11.6069  11.6573  11.6776  11.7368  11.7852  11.7996
    11.8462  11.8752  11.9039  11.9426  11.9644  12.0004  12.0443  12.0797
    12.1040  12.1217  12.1740  12.2959  12.4289  12.4837  12.5740  12.6468
    12.7297  12.8014  12.8165  12.9023  12.9481  13.0262  13.1247  13.2240
    14.7520  14.9297  15.0661  15.1194  15.3590  15.3716  15.3738  15.4951
    15.5024  15.6457  15.6833  15.9021  15.9890  16.0343  16.0816  16.1740
    16.2334  16.2649  16.3666  16.3866  16.4642  16.5514  16.5998  16.6551
    16.7597  16.9739  17.0275  17.1060  17.1165  17.1598  17.1938  17.2191
    17.2418  17.2894  17.3406  17.3539  17.3712  17.4405  17.4551  17.5598
    17.5819  17.6150  17.6554  17.6742  17.7015  17.7365  17.7615  17.7885
    17.8086  17.8541  17.9045  17.9486  17.9683  18.0093  18.0220  18.0745
    18.1025  18.1111  18.1511

          k =-0.5000-0.5000-0.5000 ( 31408 PWs)   bands (ev):

   -42.0747 -41.8045 -41.7878 -41.7683 -41.7604 -41.7588 -41.7428 -41.7373
   -41.7332 -41.7263 -41.7189 -41.7066 -41.7009 -41.6871 -41.6791 -41.6679
   -41.6664 -41.6541 -41.6452 -41.6377 -41.6353 -41.6294 -41.6192 -41.5983
   -18.4615 -18.4301 -18.4174 -18.3829 -18.3634 -18.3471 -18.3432 -18.3246
   -18.3094 -18.2937 -18.2901 -18.2768 -18.2554 -18.2515 -18.2411 -18.2388
   -18.2308 -18.2200 -18.2122 -18.1979 -18.1713 -18.1641 -18.1596 -18.1486
   -18.1472 -18.1215 -18.1147 -18.1052 -18.0926 -18.0740 -18.0662 -18.0561
   -18.0367 -18.0305 -18.0164 -18.0060 -17.9967 -17.9863 -17.9791 -17.9673
   -17.9630 -17.9601 -17.9548 -17.9516 -17.9483 -17.9399 -17.9391 -17.9329
   -17.9267 -17.9250 -17.9210 -17.9158 -17.9100 -17.9060 -17.9047 -17.8951
   -17.8899 -17.8823 -17.8674 -17.8621 -17.8569 -17.8487 -17.8429 -17.8334
   -17.8131 -17.8084 -17.8063 -17.8029 -17.7954 -17.7919 -17.7906 -17.7769
    -0.8943  -0.7780  -0.5879  -0.5441  -0.3859  -0.2616  -0.2005  -0.1796
     0.4295   0.4400   0.4729   0.5105   0.5461   0.5580   0.5688   0.5910
     0.5938   0.6129   0.6358   0.6665   0.7330   0.7990   0.8673   0.9330
     1.0122   1.0388   1.0779   1.1100   1.1660   1.2374   1.2834   1.2994
     7.9109   7.9242   7.9923   8.0391   8.2185   8.3471   8.6539   8.7822
     8.7956   8.8115   8.8686   8.9017   8.9168   8.9687   9.0204   9.0948
     9.1937   9.2261   9.2927   9.3585   9.3830   9.4525   9.5165   9.5698
     9.9122  10.0066  10.0719  10.1352  10.2106  10.2522  10.2580  10.2935
    10.3352  10.3902  10.4097  10.4210  10.4679  10.5059  10.5161  10.5703
    10.5941  10.6504  10.6569  10.6967  10.7423  10.7815  10.7885  10.8069
    10.8431  10.8723  10.9175  10.9376  10.9799  11.0028  11.0545  11.1168
    11.2962  11.3271  11.3506  11.3996  11.4098  11.4583  11.4904  11.5367
    11.5516  11.5697  11.5843  11.6163  11.6676  11.6807  11.7097  11.7677
    11.7878  11.8227  11.8730  11.9187  11.9758  12.0055  12.0724  12.1528
    12.1619  12.2677  12.3343  12.3680  12.3997  12.4785  12.4894  12.5409
    12.5853  12.6236  12.7501  12.9058  12.9282  13.0105  13.0577  13.1812
    15.3092  15.3334  15.4007  15.4236  15.4342  15.4958  15.5460  15.5512
    15.5740  15.6356  15.7102  15.7405  15.7695  15.8552  16.0200  16.1498
    16.1783  16.2434  16.2668  16.3228  16.3639  16.4197  16.4567  16.4986
    16.5264  16.5535  16.5800  16.6126  16.6379  16.6653  16.6990  16.9245
    17.0652  17.1095  17.1492  17.1732  17.2125  17.2603  17.2718  17.3341
    17.3647  17.5996  17.6753  17.7377  17.7483  17.8771  17.9049  17.9275
    18.0914  18.1231  18.1381  18.1515  18.1723  18.1805  18.1964  18.2040
    18.2226  18.2335  18.2420

          k =-0.5000 0.0000 0.0000 ( 31624 PWs)   bands (ev):

   -42.0747 -41.8091 -41.7871 -41.7692 -41.7561 -41.7558 -41.7432 -41.7343
   -41.7289 -41.7259 -41.7210 -41.7091 -41.7023 -41.6910 -41.6784 -41.6701
   -41.6674 -41.6563 -41.6464 -41.6373 -41.6328 -41.6283 -41.6178 -41.5982
   -18.4645 -18.4334 -18.4247 -18.4125 -18.3919 -18.3585 -18.3540 -18.3176
   -18.3064 -18.2890 -18.2740 -18.2637 -18.2476 -18.2400 -18.2318 -18.2206
   -18.2104 -18.1962 -18.1855 -18.1779 -18.1661 -18.1537 -18.1505 -18.1368
   -18.1341 -18.1293 -18.1242 -18.1170 -18.1012 -18.0953 -18.0759 -18.0697
   -18.0497 -18.0393 -18.0357 -18.0152 -18.0102 -17.9945 -17.9928 -17.9889
   -17.9817 -17.9718 -17.9636 -17.9580 -17.9517 -17.9495 -17.9401 -17.9325
   -17.9293 -17.9227 -17.9116 -17.9071 -17.8981 -17.8956 -17.8827 -17.8769
   -17.8664 -17.8648 -17.8570 -17.8499 -17.8412 -17.8379 -17.8347 -17.8328
   -17.8243 -17.8189 -17.8151 -17.8122 -17.8095 -17.7981 -17.7918 -17.7837
    -1.3993  -1.0497  -0.4308  -0.2196  -0.1760  -0.0641   0.0659   0.0901
     0.1285   0.1611   0.2230   0.3158   0.4052   0.5259   0.6151   0.6459
     0.7187   0.7347   0.7484   0.7784   0.8418   0.8603   0.8753   0.9105
     0.9843   1.0334   1.0529   1.1716   1.2151   1.2631   1.2914   1.3475
     7.5829   7.6266   7.6649   7.7848   7.8503   8.2958   8.3472   8.5044
     8.6179   8.9209   8.9319   8.9703   9.0531   9.1194   9.1769   9.2445
     9.3401   9.3768   9.4390   9.5128   9.5321   9.5688   9.6083   9.6640
     9.7079   9.7223   9.7879   9.7975   9.8786   9.9408   9.9614  10.0093
    10.1252  10.1748  10.4068  10.4674  10.5027  10.5443  10.5719  10.5859
    10.5950  10.6251  10.6318  10.6720  10.7503  10.7802  10.8260  10.8723
    10.9118  10.9336  10.9731  11.0363  11.1372  11.1603  11.1662  11.2472
    11.2796  11.3961  11.4302  11.5129  11.5379  11.5629  11.5809  11.6293
    11.6617  11.7149  11.7367  11.7624  11.7989  11.8186  11.8591  11.8883
    11.8984  11.9433  11.9627  11.9773  11.9990  12.0094  12.0997  12.1234
    12.2522  12.3320  12.4018  12.4568  12.5094  12.5864  12.6574  12.7191
    12.8328  12.8391  12.8674  12.9084  13.3499  13.4261  13.4352  13.5165
    13.5736  14.1209  14.6526  14.6991  15.2337  15.2829  15.3780  15.4028
    15.4624  15.5463  15.6432  15.7098  16.0995  16.1355  16.2432  16.2550
    16.5718  16.6413  16.9007  16.9200  16.9321  16.9873  17.0243  17.0336
    17.0404  17.1081  17.1247  17.1401  17.2194  17.2979  17.3024  17.3563
    17.3614  17.3685  17.4023  17.4069  17.4327  17.4554  17.5067  17.5255
    17.5864  17.6016  17.6188  17.6436  17.6563  17.6895  17.7104  17.7286
    17.7453  17.7673  17.7927  17.7998  17.8442  17.8616  17.8754  17.8978
    17.9299  17.9515  17.9966

          k = 0.0000-0.5000 0.0000 ( 31624 PWs)   bands (ev):

   -42.0747 -41.8076 -41.7857 -41.7747 -41.7598 -41.7526 -41.7390 -41.7338
   -41.7287 -41.7256 -41.7245 -41.7077 -41.7026 -41.6913 -41.6788 -41.6690
   -41.6671 -41.6548 -41.6451 -41.6379 -41.6347 -41.6304 -41.6173 -41.5975
   -18.4606 -18.4392 -18.4322 -18.3890 -18.3708 -18.3580 -18.3527 -18.3215
   -18.3097 -18.2901 -18.2864 -18.2725 -18.2645 -18.2476 -18.2325 -18.2199
   -18.2168 -18.2087 -18.1953 -18.1872 -18.1712 -18.1633 -18.1455 -18.1386
   -18.1315 -18.1226 -18.1116 -18.1035 -18.0961 -18.0803 -18.0776 -18.0638
   -18.0381 -18.0361 -18.0226 -18.0188 -18.0137 -18.0054 -17.9950 -17.9870
   -17.9768 -17.9707 -17.9644 -17.9564 -17.9529 -17.9392 -17.9375 -17.9345
   -17.9233 -17.9193 -17.9111 -17.9066 -17.8980 -17.8864 -17.8843 -17.8752
   -17.8739 -17.8708 -17.8603 -17.8573 -17.8531 -17.8461 -17.8397 -17.8299
   -17.8228 -17.8185 -17.8148 -17.8092 -17.8028 -17.7997 -17.7984 -17.7799
    -1.3554  -1.1498  -0.2641  -0.1865  -0.1720  -0.0842  -0.0259   0.0562
     0.0731   0.1486   0.1865   0.3481   0.4415   0.5202   0.6219   0.6823
     0.6924   0.7450   0.8094   0.8282   0.8375   0.8709   0.8829   0.8947
     0.9589   0.9906   1.0621   1.1766   1.1917   1.2585   1.2715   1.3479
     7.5493   7.5637   7.6944   7.8137   7.9636   8.1912   8.4089   8.5006
     8.8475   8.9627   8.9724   9.0304   9.0441   9.1084   9.1769   9.2212
     9.2523   9.3354   9.4066   9.4143   9.4730   9.5394   9.5859   9.6315
     9.6648   9.7046   9.7349   9.7703   9.8266   9.8756   9.9242   9.9561
    10.0448  10.3606  10.4275  10.4422  10.5316  10.5415  10.5608  10.6229
    10.6461  10.6831  10.6961  10.7419  10.7711  10.8057  10.8455  10.8566
    10.9389  10.9764  11.0164  11.0379  11.0843  11.1202  11.2098  11.2310
    11.2552  11.3761  11.4176  11.4732  11.5016  11.5349  11.5676  11.6080
    11.6699  11.6854  11.7356  11.7633  11.7859  11.8098  11.8515  11.8696
    11.9230  11.9791  11.9975  12.0012  12.0334  12.0610  12.1423  12.1731
    12.2250  12.2581  12.3476  12.4715  12.5464  12.6838  12.7163  12.7215
    12.7655  12.7760  12.7972  12.8840  13.4163  13.4266  13.4923  13.5131
    13.5869  13.9852  14.7216  14.8187  15.1827  15.1967  15.2778  15.4451
    15.4894  15.5394  15.6134  15.7258  15.9760  16.0283  16.2712  16.3302
    16.6390  16.6663  16.8848  16.9897  17.0115  17.0331  17.0755  17.0797
    17.0929  17.1105  17.1651  17.1923  17.2422  17.2856  17.2996  17.3301
    17.3519  17.3866  17.3985  17.4191  17.4603  17.4896  17.5115  17.5159
    17.5262  17.5589  17.5838  17.6122  17.6181  17.6803  17.6998  17.7094
    17.7380  17.7850  17.8110  17.8241  17.8592  17.8661  17.8739  17.8956
    17.9093  17.9285  17.9586

          k =-0.5000 0.0000 0.5000 ( 31480 PWs)   bands (ev):

   -42.0747 -41.8055 -41.7894 -41.7688 -41.7600 -41.7539 -41.7441 -41.7372
   -41.7301 -41.7265 -41.7187 -41.7064 -41.7044 -41.6875 -41.6786 -41.6706
   -41.6655 -41.6559 -41.6453 -41.6379 -41.6338 -41.6286 -41.6187 -41.5982
   -18.4599 -18.4318 -18.4184 -18.3827 -18.3688 -18.3457 -18.3376 -18.3315
   -18.3059 -18.2980 -18.2840 -18.2703 -18.2653 -18.2565 -18.2473 -18.2390
   -18.2358 -18.2252 -18.2045 -18.1878 -18.1820 -18.1671 -18.1563 -18.1422
   -18.1399 -18.1286 -18.1173 -18.1006 -18.0917 -18.0709 -18.0649 -18.0414
   -18.0313 -18.0302 -18.0231 -18.0123 -18.0024 -17.9975 -17.9880 -17.9733
   -17.9659 -17.9638 -17.9568 -17.9479 -17.9441 -17.9416 -17.9369 -17.9285
   -17.9263 -17.9192 -17.9137 -17.9094 -17.9032 -17.9008 -17.8907 -17.8866
   -17.8779 -17.8736 -17.8679 -17.8650 -17.8517 -17.8455 -17.8436 -17.8333
   -17.8300 -17.8208 -17.8180 -17.8070 -17.8022 -17.7982 -17.7859 -17.7782
    -1.0864  -1.0061  -0.7527  -0.5989   0.0134   0.0322   0.1770   0.2237
     0.2702   0.2745   0.3632   0.3905   0.4025   0.4374   0.4787   0.5111
     0.5288   0.5915   0.6539   0.7461   0.7627   0.8168   0.8470   0.9029
     1.0310   1.0486   1.0949   1.1631   1.1988   1.2440   1.3565   1.3878
     7.6468   7.7259   7.8518   8.0756   8.2100   8.2705   8.5896   8.6425
     8.7524   8.8337   8.8618   8.9394   8.9674   9.0153   9.0414   9.1836
     9.2179   9.2297   9.2692   9.2914   9.4203   9.4419   9.4968   9.6031
     9.6409   9.7218   9.7496   9.8692  10.0292  10.0640  10.1034  10.1797
    10.2229  10.2832  10.4270  10.4465  10.5003  10.5867  10.6638  10.6992
    10.7333  10.7499  10.7664  10.8129  10.8394  10.8929  10.9135  10.9590
    10.9713  11.0130  11.0974  11.1753  11.1871  11.1956  11.2437  11.2706
    11.3085  11.3489  11.3838  11.4023  11.4374  11.4482  11.4938  11.5440
    11.5951  11.6134  11.6195  11.6471  11.6942  11.7598  11.7731  11.7982
    11.8207  11.8299  11.8811  11.9160  11.9531  11.9694  12.0041  12.0329
    12.0559  12.0846  12.2150  12.4058  12.4429  12.5025  12.6361  12.6832
    12.7490  12.7521  12.8260  12.8608  12.9193  12.9345  13.0877  13.2378
    14.7258  14.9635  15.0541  15.2571  15.2850  15.3325  15.4013  15.4399
    15.5458  15.6489  15.7859  15.7996  15.9423  16.0162  16.1026  16.1362
    16.2290  16.2908  16.3137  16.3640  16.4690  16.5653  16.6861  16.7630
    16.8442  16.9580  16.9974  17.1387  17.1675  17.1824  17.2175  17.2365
    17.2643  17.2831  17.3255  17.3319  17.4116  17.4133  17.4564  17.5108
    17.5298  17.5501  17.6224  17.6674  17.6696  17.7223  17.7370  17.7853
    17.8253  17.8419  17.8605  17.9403  17.9776  17.9989  18.0183  18.0599
    18.0718  18.1136  18.1319

          k =-0.5000 0.5000 0.0000 ( 31480 PWs)   bands (ev):

   -42.0747 -41.8069 -41.7856 -41.7733 -41.7597 -41.7541 -41.7400 -41.7383
   -41.7300 -41.7255 -41.7209 -41.7064 -41.7015 -41.6912 -41.6789 -41.6690
   -41.6670 -41.6542 -41.6452 -41.6381 -41.6347 -41.6289 -41.6180 -41.5982
   -18.4640 -18.4329 -18.4185 -18.3926 -18.3498 -18.3453 -18.3288 -18.3150
   -18.3081 -18.2962 -18.2833 -18.2774 -18.2697 -18.2654 -18.2544 -18.2394
   -18.2238 -18.2215 -18.2169 -18.2019 -18.1916 -18.1723 -18.1544 -18.1427
   -18.1383 -18.1307 -18.1095 -18.0989 -18.0899 -18.0663 -18.0474 -18.0400
   -18.0276 -18.0246 -18.0204 -18.0164 -18.0054 -18.0011 -17.9980 -17.9857
   -17.9787 -17.9766 -17.9654 -17.9496 -17.9428 -17.9358 -17.9288 -17.9242
   -17.9223 -17.9164 -17.9104 -17.9027 -17.8985 -17.8934 -17.8903 -17.8843
   -17.8741 -17.8676 -17.8605 -17.8589 -17.8537 -17.8493 -17.8366 -17.8357
   -17.8250 -17.8223 -17.8185 -17.8149 -17.8111 -17.8059 -17.7896 -17.7810
    -1.1438  -0.9317  -0.7566  -0.5521  -0.0260  -0.0180   0.1320   0.1994
     0.2357   0.3389   0.3485   0.3675   0.4145   0.4607   0.4807   0.5124
     0.5162   0.5739   0.6421   0.7538   0.8179   0.8498   0.8753   0.9550
     0.9822   1.0916   1.1387   1.1503   1.1918   1.2408   1.3105   1.3563
     7.6504   7.7794   7.9413   8.0014   8.2547   8.2847   8.4970   8.6556
     8.7129   8.7301   8.8187   8.8686   8.9306   8.9813   9.0215   9.1208
     9.1660   9.2651   9.2890   9.3208   9.4408   9.4492   9.5446   9.6158
     9.7190   9.7685   9.8073   9.8685   9.9865  10.0504  10.0640  10.2568
    10.2876  10.3169  10.3783  10.4913  10.5169  10.5458  10.5897  10.6706
    10.7198  10.7377  10.7532  10.7865  10.8431  10.8903  10.9534  10.9991
    11.0078  11.0318  11.1206  11.1612  11.1810  11.2419  11.2597  11.2967
    11.3441  11.3459  11.3789  11.3832  11.4443  11.5203  11.5237  11.5736
    11.5925  11.6045  11.6308  11.6652  11.7163  11.7349  11.7665  11.7811
    11.8292  11.8469  11.9040  11.9152  11.9664  11.9962  12.0334  12.0491
    12.1068  12.1641  12.2415  12.3297  12.4743  12.5417  12.5635  12.6016
    12.6966  12.7281  12.7765  12.8246  12.8535  12.8910  13.0489  13.1592
    14.8063  14.8954  14.9532  15.0801  15.2003  15.3901  15.4098  15.5407
    15.5835  15.7971  15.8119  15.8519  15.9110  15.9663  16.0739  16.0976
    16.1872  16.2785  16.3613  16.4516  16.4738  16.5283  16.7669  16.7751
    17.0167  17.0688  17.0797  17.1290  17.1506  17.1936  17.2037  17.2212
    17.2270  17.2583  17.2991  17.3340  17.4160  17.4299  17.4682  17.5014
    17.5079  17.5541  17.5610  17.6717  17.6875  17.7182  17.7208  17.7465
    17.7668  17.8073  17.8380  17.8636  17.9262  17.9388  18.0168  18.0413
    18.0770  18.1147  18.1306

     the Fermi energy is    15.8749 ev

!    total energy              =   -5634.99490263 Ry
     total all-electron energy =    -48379.848527 Ry
     estimated scf accuracy    <          2.2E-09 Ry
     smearing contrib. (-TS)   =      -0.00227904 Ry
     internal energy E=F+TS    =   -5634.99262359 Ry

     The total energy is F=E-TS. E is the sum of the following terms:
     one-electron contribution =    -919.77062836 Ry
     hartree contribution      =     757.82498582 Ry
     xc contribution           =    -655.34808729 Ry
     ewald contribution        =   -2717.30816579 Ry
     one-center paw contrib.   =   -2100.39072798 Ry

     convergence has been achieved in  20 iterations
 
     init_run     :      3.46s CPU      3.65s WALL (       1 calls)
     electrons    :    194.49s CPU    198.38s WALL (       1 calls)

     Called by init_run:
     wfcinit      :      3.01s CPU      3.13s WALL (       1 calls)
     potinit      :      0.21s CPU      0.23s WALL (       1 calls)
     hinit0       :      0.12s CPU      0.15s WALL (       1 calls)

     Called by electrons:
     c_bands      :    171.84s CPU    174.85s WALL (      20 calls)
     sum_band     :     16.55s CPU     17.03s WALL (      20 calls)
     v_of_rho     :      0.73s CPU      0.76s WALL (      21 calls)
     newd         :      1.32s CPU      1.53s WALL (      21 calls)
     PAW_pot      :      3.28s CPU      3.36s WALL (      21 calls)
     mix_rho      :      0.97s CPU      1.04s WALL (      20 calls)

     Called by c_bands:
     init_us_2    :      1.68s CPU      1.71s WALL (      82 calls)
     init_us_2:cp :      1.68s CPU      1.71s WALL (      82 calls)
     cegterg      :    151.86s CPU    154.75s WALL (      40 calls)

     Called by *egterg:
     cdiaghg      :     22.07s CPU     22.47s WALL (     265 calls)
     h_psi        :     68.20s CPU     69.26s WALL (     267 calls)
     s_psi        :     17.65s CPU     17.83s WALL (     267 calls)
     g_psi        :      0.34s CPU      0.34s WALL (     225 calls)

     Called by h_psi:
     h_psi:calbec :     17.45s CPU     17.59s WALL (     267 calls)
     vloc_psi     :     32.27s CPU     32.80s WALL (     267 calls)
     add_vuspsi   :     17.83s CPU     18.00s WALL (     267 calls)

     General routines
     calbec       :     23.96s CPU     24.15s WALL (     307 calls)
     fft          :      0.37s CPU      0.41s WALL (     231 calls)
     ffts         :      0.49s CPU      0.50s WALL (     415 calls)
     fftw         :     32.82s CPU     33.36s WALL (   70040 calls)
 
     Parallel routines
 
     PWSCF        :   3m18.19s CPU   3m22.55s WALL

 
   This run was terminated on:  17:39:32  11May2026            

=------------------------------------------------------------------------------=
   JOB DONE.
=------------------------------------------------------------------------------=
