
     Program PWSCF v.7.1 starts on 14May2026 at 12:21: 4 

     This program is part of the open-source Quantum ESPRESSO suite
     for quantum simulation of materials; please cite
         "P. Giannozzi et al., J. Phys.:Condens. Matter 21 395502 (2009);
         "P. Giannozzi et al., J. Phys.:Condens. Matter 29 465901 (2017);
         "P. Giannozzi et al., J. Chem. Phys. 152 154105 (2020);
          URL http://www.quantum-espresso.org", 
     in publications or presentations arising from this work. More details at
     http://www.quantum-espresso.org/quote

     Parallel version (MPI & OpenMP), running on      32 processor cores
     Number of MPI processes:                32
     Threads/MPI process:                     1

     MPI processes distributed on     1 nodes
     91255 MiB available memory on the printing compute node when the environment starts
 
     Reading input from TiAlN_x05optimalvolume833426.in

     Current dimensions of program PWSCF are:
     Max number of different atomic species (ntypx) = 10
     Max number of k-points (npk) = 150000
     Max angular momentum in pseudopotentials (lmaxx) =  4
     file Al.pbe-n-kjpaw_psl.1.0.0.UPF: wavefunction(s)  3S 3P renormalized
     file N.pbe-n-kjpaw_psl.1.0.0.UPF: wavefunction(s)  2S renormalized
     file Ti.pbe-spn-kjpaw_psl.1.0.0.UPF: wavefunction(s)  3S 3P 3D renormalized
 
     K-points division:     npool     =       4
     R & G space division:  proc/nbgrp/npool/nimage =       8
     Subspace diagonalization in iterative solution of the eigenvalue problem:
     one sub-group per band group will be used
     scalapack distributed-memory algorithm (size of sub-group:  2*  2 procs)

 
     Parallelization info
     --------------------
     sticks:   dense  smooth     PW     G-vecs:    dense   smooth      PW
     Min         588     588    163                30618    30618    4379
     Max         589     589    164                30625    30625    4380
     Sum        4709    4709   1305               244977   244977   35033
 
     Using Slab Decomposition
 


     bravais-lattice index     =            0
     lattice parameter (alat)  =      15.7495  a.u.
     unit-cell volume          =    3906.5891 (a.u.)^3
     number of atoms/cell      =           64
     number of atomic types    =            3
     number of electrons       =       400.00
     number of Kohn-Sham states=          240
     kinetic-energy cutoff     =      60.0000  Ry
     charge density cutoff     =     240.0000  Ry
     scf convergence threshold =      1.0E-08
     mixing beta               =       0.2000
     number of iterations used =            8  local-TF  mixing
     Exchange-correlation= SLA  PW   PBX  PBC
                           (   1   4   3   4   0   0   0)

     celldm(1)=  15.749469  celldm(2)=   0.000000  celldm(3)=   0.000000
     celldm(4)=   0.000000  celldm(5)=   0.000000  celldm(6)=   0.000000

     crystal axes: (cart. coord. in units of alat)
               a(1) = (   1.000000   0.000000   0.000000 )  
               a(2) = (   0.000000   1.000000   0.000000 )  
               a(3) = (   0.000000   0.000000   1.000000 )  

     reciprocal axes: (cart. coord. in units 2 pi/alat)
               b(1) = (  1.000000  0.000000  0.000000 )  
               b(2) = (  0.000000  1.000000  0.000000 )  
               b(3) = (  0.000000  0.000000  1.000000 )  


     PseudoPot. # 1 for Al read from file:
     ../../../pseudo/Al.pbe-n-kjpaw_psl.1.0.0.UPF
     MD5 check sum: 502b6b27b9c6270cab5dd1084b96fa6d
     Pseudo is Projector augmented-wave + core cor, Zval =  3.0
     Generated using &quot;atomic&quot; code by A. Dal Corso  v.6.3
     Shape of augmentation charge: PSQ
     Using radial grid of 1135 points,  6 beta functions with: 
                l(1) =   0
                l(2) =   0
                l(3) =   1
                l(4) =   1
                l(5) =   2
                l(6) =   2
     Q(r) pseudized with 0 coefficients 


     PseudoPot. # 2 for N  read from file:
     ../../../pseudo/N.pbe-n-kjpaw_psl.1.0.0.UPF
     MD5 check sum: 14c48229446f9f2d411169a3abcbc3fa
     Pseudo is Projector augmented-wave + core cor, Zval =  5.0
     Generated using &quot;atomic&quot; code by A. Dal Corso  v.6.3
     Shape of augmentation charge: PSQ
     Using radial grid of 1085 points,  4 beta functions with: 
                l(1) =   0
                l(2) =   0
                l(3) =   1
                l(4) =   1
     Q(r) pseudized with 0 coefficients 


     PseudoPot. # 3 for Ti read from file:
     ../../../pseudo/Ti.pbe-spn-kjpaw_psl.1.0.0.UPF
     MD5 check sum: 01f69b0d8ba4438b2e03ac6ea4af1c0b
     Pseudo is Projector augmented-wave + core cor, Zval = 12.0
     Generated using &quot;atomic&quot; code by A. Dal Corso  v.6.2.2
     Shape of augmentation charge: PSQ
     Using radial grid of 1177 points,  6 beta functions with: 
                l(1) =   0
                l(2) =   0
                l(3) =   1
                l(4) =   1
                l(5) =   2
                l(6) =   2
     Q(r) pseudized with 0 coefficients 


     atomic species   valence    mass     pseudopotential
        Al             3.00    26.98200     Al( 1.00)
        N              5.00    14.00700     N ( 1.00)
        Ti            12.00    47.86700     Ti( 1.00)

     No symmetry found



   Cartesian axes

     site n.     atom                  positions (alat units)
         1           Al  tau(   1) = (  -0.0045874  -0.0012016   0.0041245  )
         2           N   tau(   2) = (   0.2455305  -0.0009228   0.0018297  )
         3           Al  tau(   3) = (  -0.0020040   0.2511685   0.2491256  )
         4           N   tau(   4) = (   0.2493138   0.2552507   0.2551739  )
         5           Ti  tau(   5) = (   0.2553992   0.0000429   0.2438127  )
         6           N   tau(   6) = (  -0.0036536   0.0003594   0.2462917  )
         7           Ti  tau(   7) = (   0.2541450   0.2498384  -0.0053501  )
         8           N   tau(   8) = (  -0.0021324   0.2452063   0.0077907  )
         9           Al  tau(   9) = (   0.0013600   0.0021572   0.4925219  )
        10           N   tau(  10) = (   0.2420789   0.0013992   0.4950946  )
        11           Ti  tau(  11) = (   0.0040617   0.2496356   0.7485153  )
        12           N   tau(  12) = (   0.2477081   0.2510132   0.7334234  )
        13           Ti  tau(  13) = (   0.2531726  -0.0002958   0.7510642  )
        14           N   tau(  14) = (  -0.0019310   0.0002512   0.7521437  )
        15           Al  tau(  15) = (   0.2484064   0.2485587   0.4923810  )
        16           N   tau(  16) = (   0.0018004   0.2435177   0.4898074  )
        17           Al  tau(  17) = (  -0.0026269   0.5004918   0.0055758  )
        18           N   tau(  18) = (   0.2372812   0.4993063   0.0096626  )
        19           Al  tau(  19) = (  -0.0022775   0.7469844   0.2481215  )
        20           N   tau(  20) = (   0.2494137   0.7417689   0.2535933  )
        21           Al  tau(  21) = (   0.2478295   0.4984424   0.2508972  )
        22           N   tau(  22) = (  -0.0036514   0.4989917   0.2450489  )
        23           Ti  tau(  23) = (   0.2530279   0.7473636  -0.0062331  )
        24           N   tau(  24) = (  -0.0046159   0.7511099   0.0081345  )
        25           Ti  tau(  25) = (  -0.0005536   0.5028546   0.5078718  )
        26           N   tau(  26) = (   0.2469441   0.4979594   0.4907669  )
        27           Ti  tau(  27) = (   0.0013748   0.7473349   0.7449252  )
        28           N   tau(  28) = (   0.2476173   0.7460956   0.7347467  )
        29           Ti  tau(  29) = (   0.2510621   0.4991020   0.7507199  )
        30           N   tau(  30) = (  -0.0076499   0.4982592   0.7606002  )
        31           Al  tau(  31) = (   0.2471360   0.7497019   0.4919566  )
        32           N   tau(  32) = (   0.0054882   0.7573047   0.4883610  )
        33           Al  tau(  33) = (   0.5058193  -0.0030614   0.0054135  )
        34           N   tau(  34) = (   0.7503023  -0.0055558   0.0072503  )
        35           Al  tau(  35) = (   0.5011435   0.2526518   0.2529132  )
        36           N   tau(  36) = (   0.7475749   0.2516700   0.2536396  )
        37           Al  tau(  37) = (   0.7491242   0.0002007   0.2488712  )
        38           N   tau(  38) = (   0.5044575  -0.0005217   0.2439595  )
        39           Ti  tau(  39) = (   0.7422845   0.2500936  -0.0075033  )
        40           N   tau(  40) = (   0.4999350   0.2380733   0.0112210  )
        41           Ti  tau(  41) = (   0.5019725  -0.0044006   0.5080202  )
        42           N   tau(  42) = (   0.7573482   0.0079395   0.4894058  )
        43           Ti  tau(  43) = (   0.4944884   0.2491157   0.7487939  )
        44           N   tau(  44) = (   0.7490119   0.2571667   0.7382643  )
        45           Ti  tau(  45) = (   0.7432198  -0.0028250   0.7426814  )
        46           N   tau(  46) = (   0.5003134   0.0003907   0.7628603  )
        47           Al  tau(  47) = (   0.7492830   0.2499190   0.4945200  )
        48           N   tau(  48) = (   0.4964751   0.2477031   0.4894584  )
        49           Ti  tau(  49) = (   0.4912228   0.4953193  -0.0077363  )
        50           N   tau(  50) = (   0.7535591   0.5031818   0.0018883  )
        51           Al  tau(  51) = (   0.5013513   0.7434552   0.2475036  )
        52           N   tau(  52) = (   0.7472866   0.7456855   0.2466899  )
        53           Al  tau(  53) = (   0.7476790   0.4985094   0.2482344  )
        54           N   tau(  54) = (   0.5009409   0.4981167   0.2476026  )
        55           Al  tau(  55) = (   0.7487965   0.7469127   0.0041220  )
        56           N   tau(  56) = (   0.5049981   0.7548093   0.0091321  )
        57           Ti  tau(  57) = (   0.4986515   0.5025695   0.5076765  )
        58           N   tau(  58) = (   0.7497817   0.4915561   0.4981121  )
        59           Ti  tau(  59) = (   0.4971333   0.7485389   0.7446883  )
        60           N   tau(  60) = (   0.7490367   0.7385185   0.7572517  )
        61           Al  tau(  61) = (   0.7502175   0.4985686   0.7513855  )
        62           N   tau(  62) = (   0.5102278   0.4982866   0.7488691  )
        63           Ti  tau(  63) = (   0.7434942   0.7497123   0.5055050  )
        64           N   tau(  64) = (   0.4885405   0.7487889   0.4869453  )

     number of k points=     8  Gaussian smearing, width (Ry)=  0.0050
                       cart. coord. in units 2pi/alat
        k(    1) = (   0.0000000   0.0000000   0.0000000), wk =   0.2500000
        k(    2) = (   0.0000000   0.0000000  -0.5000000), wk =   0.2500000
        k(    3) = (   0.0000000  -0.5000000  -0.5000000), wk =   0.2500000
        k(    4) = (  -0.5000000  -0.5000000  -0.5000000), wk =   0.2500000
        k(    5) = (  -0.5000000   0.0000000   0.0000000), wk =   0.2500000
        k(    6) = (   0.0000000  -0.5000000   0.0000000), wk =   0.2500000
        k(    7) = (  -0.5000000   0.0000000   0.5000000), wk =   0.2500000
        k(    8) = (  -0.5000000   0.5000000   0.0000000), wk =   0.2500000

     Dense  grid:   244977 G-vectors     FFT dimensions: (  80,  80,  80)

     Estimated max dynamical RAM per process >     203.36 MB

     Estimated total dynamical RAM >       6.18 GB

     Check: negative core charge=   -0.000021

     Initial potential from superposition of free atoms

     starting charge     399.9395, renormalised to     400.0000
     Starting wfcs are  352 randomized atomic wfcs
     Checking if some PAW data can be deallocated... 

     total cpu time spent up to now is        3.5 secs

     Self-consistent Calculation

     iteration #  1     ecut=    60.00 Ry     beta= 0.20
     Davidson diagonalization with overlap
     ethr =  1.00E-02,  avg # of iterations =  2.0

     total cpu time spent up to now is        9.8 secs

     total energy              =   -4482.64525890 Ry
     estimated scf accuracy    <      18.53378877 Ry

     iteration #  2     ecut=    60.00 Ry     beta= 0.20
     Davidson diagonalization with overlap
     ethr =  4.63E-03,  avg # of iterations =  1.0

     total cpu time spent up to now is       15.1 secs

     total energy              =   -4478.16027709 Ry
     estimated scf accuracy    <      10.50578951 Ry

     iteration #  3     ecut=    60.00 Ry     beta= 0.20
     Davidson diagonalization with overlap
     ethr =  2.63E-03,  avg # of iterations =  3.1

     total cpu time spent up to now is       22.2 secs

     total energy              =   -4480.61940684 Ry
     estimated scf accuracy    <       0.59259655 Ry

     iteration #  4     ecut=    60.00 Ry     beta= 0.20
     Davidson diagonalization with overlap
     ethr =  1.48E-04,  avg # of iterations =  6.0

     total cpu time spent up to now is       30.2 secs

     total energy              =   -4480.68853789 Ry
     estimated scf accuracy    <       0.40157765 Ry

     iteration #  5     ecut=    60.00 Ry     beta= 0.20
     Davidson diagonalization with overlap
     ethr =  1.00E-04,  avg # of iterations =  1.4

     total cpu time spent up to now is       35.9 secs

     total energy              =   -4480.66075549 Ry
     estimated scf accuracy    <       0.20205696 Ry

     iteration #  6     ecut=    60.00 Ry     beta= 0.20
     Davidson diagonalization with overlap
     ethr =  5.05E-05,  avg # of iterations =  2.0

     total cpu time spent up to now is       42.2 secs

     total energy              =   -4480.66360297 Ry
     estimated scf accuracy    <       0.06453070 Ry

     iteration #  7     ecut=    60.00 Ry     beta= 0.20
     Davidson diagonalization with overlap
     ethr =  1.61E-05,  avg # of iterations =  2.1

     total cpu time spent up to now is       48.0 secs

     total energy              =   -4480.66039332 Ry
     estimated scf accuracy    <       0.01890981 Ry

     iteration #  8     ecut=    60.00 Ry     beta= 0.20
     Davidson diagonalization with overlap
     ethr =  4.73E-06,  avg # of iterations =  9.6

     total cpu time spent up to now is       60.2 secs

     total energy              =   -4480.66377682 Ry
     estimated scf accuracy    <       0.00961384 Ry

     iteration #  9     ecut=    60.00 Ry     beta= 0.20
     Davidson diagonalization with overlap
     ethr =  2.40E-06,  avg # of iterations =  2.0

     total cpu time spent up to now is       66.9 secs

     total energy              =   -4480.66513122 Ry
     estimated scf accuracy    <       0.00092596 Ry

     iteration # 10     ecut=    60.00 Ry     beta= 0.20
     Davidson diagonalization with overlap
     ethr =  2.31E-07,  avg # of iterations =  7.9

     total cpu time spent up to now is       77.2 secs

     total energy              =   -4480.66526056 Ry
     estimated scf accuracy    <       0.00055750 Ry

     iteration # 11     ecut=    60.00 Ry     beta= 0.20
     Davidson diagonalization with overlap
     ethr =  1.39E-07,  avg # of iterations =  1.0

     total cpu time spent up to now is       82.5 secs

     total energy              =   -4480.66518922 Ry
     estimated scf accuracy    <       0.00028886 Ry

     iteration # 12     ecut=    60.00 Ry     beta= 0.20
     Davidson diagonalization with overlap
     ethr =  7.22E-08,  avg # of iterations =  2.4

     total cpu time spent up to now is       89.4 secs

     total energy              =   -4480.66516655 Ry
     estimated scf accuracy    <       0.00020893 Ry

     iteration # 13     ecut=    60.00 Ry     beta= 0.20
     Davidson diagonalization with overlap
     ethr =  5.22E-08,  avg # of iterations =  2.0

     total cpu time spent up to now is       95.8 secs

     total energy              =   -4480.66519480 Ry
     estimated scf accuracy    <       0.00001573 Ry

     iteration # 14     ecut=    60.00 Ry     beta= 0.20
     Davidson diagonalization with overlap
     ethr =  3.93E-09,  avg # of iterations =  3.9

     total cpu time spent up to now is      103.5 secs

     total energy              =   -4480.66519413 Ry
     estimated scf accuracy    <       0.00000871 Ry

     iteration # 15     ecut=    60.00 Ry     beta= 0.20
     Davidson diagonalization with overlap
     ethr =  2.18E-09,  avg # of iterations =  4.5

     total cpu time spent up to now is      110.6 secs

     total energy              =   -4480.66519475 Ry
     estimated scf accuracy    <       0.00000147 Ry

     iteration # 16     ecut=    60.00 Ry     beta= 0.20
     Davidson diagonalization with overlap
     ethr =  3.68E-10,  avg # of iterations =  5.0

     total cpu time spent up to now is      119.5 secs

     total energy              =   -4480.66519503 Ry
     estimated scf accuracy    <       0.00000125 Ry

     iteration # 17     ecut=    60.00 Ry     beta= 0.20
     Davidson diagonalization with overlap
     ethr =  3.13E-10,  avg # of iterations =  2.0

     total cpu time spent up to now is      125.8 secs

     total energy              =   -4480.66519500 Ry
     estimated scf accuracy    <       0.00000030 Ry

     iteration # 18     ecut=    60.00 Ry     beta= 0.20
     Davidson diagonalization with overlap
     ethr =  7.57E-11,  avg # of iterations =  2.5

     total cpu time spent up to now is      133.0 secs

     total energy              =   -4480.66519499 Ry
     estimated scf accuracy    <       0.00000030 Ry

     iteration # 19     ecut=    60.00 Ry     beta= 0.20
     Davidson diagonalization with overlap
     ethr =  7.57E-11,  avg # of iterations =  2.0

     total cpu time spent up to now is      139.2 secs

     total energy              =   -4480.66519501 Ry
     estimated scf accuracy    <       0.00000003 Ry

     iteration # 20     ecut=    60.00 Ry     beta= 0.20
     Davidson diagonalization with overlap
     ethr =  8.20E-12,  avg # of iterations =  5.0

     total cpu time spent up to now is      148.1 secs

     total energy              =   -4480.66519503 Ry
     estimated scf accuracy    <       0.00000003 Ry

     iteration # 21     ecut=    60.00 Ry     beta= 0.20
     Davidson diagonalization with overlap
     ethr =  7.80E-12,  avg # of iterations =  2.0

     total cpu time spent up to now is      153.9 secs

     End of self-consistent calculation

          k = 0.0000 0.0000 0.0000 ( 30647 PWs)   bands (ev):

   -43.2381 -43.0285 -42.8535 -42.8275 -42.8071 -42.7754 -42.7312 -42.6971
   -42.6616 -42.6304 -42.6015 -42.5830 -42.5556 -42.5540 -42.5509 -42.5289
   -19.6399 -19.5509 -19.5265 -19.4517 -19.3941 -19.3708 -19.3499 -19.3385
   -19.3058 -19.2779 -19.2722 -19.2378 -19.2227 -19.2050 -19.1990 -19.1738
   -19.1600 -19.1483 -19.1427 -19.1340 -19.1111 -19.0919 -19.0775 -19.0614
   -19.0486 -19.0342 -19.0286 -19.0169 -18.9934 -18.9812 -18.9614 -18.9267
   -18.9184 -18.9148 -18.8801 -18.8765 -18.8633 -18.8419 -18.8346 -18.8213
   -18.7871 -18.7718 -18.7691 -18.7594 -18.7578 -18.7500 -18.7253 -18.7097
    -3.2683  -2.1028  -1.9814  -1.9073  -1.8717  -1.7503  -1.6676  -1.0473
    -0.9136  -0.8660  -0.8526  -0.8311  -0.7842  -0.7505  -0.7314  -0.6980
    -0.6751  -0.6075  -0.5718  -0.4797  -0.3802  -0.3414  -0.3256  -0.2797
    -0.2151  -0.2070  -0.0893   0.0195   0.0561   0.1311   0.1860   0.2139
     5.6928   5.7472   5.7963   5.8354   7.0737   7.1010   7.1315   7.1842
     7.2019   7.3214   7.3989   7.4314   7.5055   7.6174   7.6386   7.8786
     7.9077   7.9552   8.0167   8.0729   8.1018   8.1163   8.2000   8.2345
     8.4295   8.4448   8.5073   8.5201   8.6077   8.6685   8.7285   8.7493
     8.8991   8.9445   9.0037   9.0168   9.0662   9.3352   9.3713   9.4175
     9.4447   9.4894   9.5238   9.5310   9.5489   9.6112   9.6661   9.6721
     9.7152   9.8229   9.8543   9.9016  10.0068  10.1127  10.1549  10.1896
    10.3066  10.3639  10.4364  10.4866  10.5403  10.6647  10.7148  10.7591
    10.8283  10.8652  10.9359  10.9728  11.0374  11.0552  11.0842  11.1495
    11.1942  11.2488  11.3195  11.4191  11.4905  11.5593  11.5690  11.6332
    11.6674  11.7232  11.7595  11.7728  11.8245  11.8364  11.8502  11.8825
    11.9533  12.0221  12.0337  12.0405  12.0615  12.6953  12.9261  13.0131
    13.0425  13.0759  13.1182  13.9530  14.0023  14.1007  14.1517  14.2607
    14.5033  15.1795  15.2126  15.6245  15.8859  15.9048  16.0256  16.0419
    16.1461  16.1721  16.2454  16.2760  16.3478  16.3808  16.4218  16.4767
    16.5191  16.5409  16.5963  16.6170  16.6542  16.6680  16.6888  16.7423
    16.7940  16.8045  16.8366  16.8601  16.8708  16.9097  16.9149  16.9329
    16.9672  17.0292  17.0490  17.0592  17.0966  17.1441  17.1559  17.1811

          k = 0.0000 0.0000-0.5000 ( 30590 PWs)   bands (ev):

   -43.2381 -43.0285 -42.8535 -42.8275 -42.8071 -42.7754 -42.7312 -42.6971
   -42.6615 -42.6304 -42.6015 -42.5829 -42.5557 -42.5540 -42.5509 -42.5288
   -19.6398 -19.5509 -19.5251 -19.4523 -19.3942 -19.3707 -19.3500 -19.3390
   -19.3061 -19.2776 -19.2722 -19.2391 -19.2192 -19.2064 -19.1945 -19.1759
   -19.1620 -19.1496 -19.1424 -19.1341 -19.1099 -19.0939 -19.0776 -19.0604
   -19.0499 -19.0356 -19.0282 -19.0163 -18.9935 -18.9813 -18.9614 -18.9268
   -18.9200 -18.9145 -18.8793 -18.8755 -18.8626 -18.8433 -18.8347 -18.8177
   -18.7886 -18.7726 -18.7663 -18.7595 -18.7576 -18.7516 -18.7253 -18.7102
    -3.0526  -2.6135  -1.8661  -1.7468  -1.7153  -1.6124  -1.4658  -1.3136
    -1.2430  -1.1976  -1.0411  -0.9062  -0.7653  -0.6714  -0.6344  -0.5886
    -0.5798  -0.5637  -0.5196  -0.5023  -0.4382  -0.3891  -0.3003  -0.2298
    -0.1637  -0.1191  -0.0870   0.0284   0.1118   0.1645   0.1924   0.2146
     6.0521   6.1373   6.1481   6.3004   6.4179   6.7391   7.0322   7.0777
     7.0913   7.2807   7.3255   7.3662   7.4251   7.6742   7.7535   7.7722
     7.8726   7.9131   7.9186   7.9963   8.0252   8.0759   8.1282   8.1493
     8.2311   8.3327   8.3768   8.4350   8.4538   8.5480   8.5845   8.6379
     8.7752   8.9079   9.0512   9.1682   9.3321   9.3639   9.4275   9.4400
     9.5479   9.5927   9.5942   9.6449   9.6620   9.7169   9.7727   9.8464
     9.9217  10.0061  10.0404  10.1223  10.1922  10.2127  10.2491  10.4058
    10.4321  10.5043  10.5809  10.6323  10.6476  10.6751  10.7038  10.7108
    10.7779  10.8113  10.8418  10.8784  10.9038  10.9544  10.9896  11.0221
    11.0657  11.1223  11.1580  11.2321  11.2852  11.3190  11.3410  11.4262
    11.4874  11.5164  11.5639  11.6486  11.7485  11.8094  11.9015  11.9118
    12.0074  12.0231  12.0432  12.0650  12.4475  12.4813  12.5422  12.5902
    12.7245  13.7679  13.8508  13.9666  14.4490  14.4776  14.6713  14.6782
    14.7276  15.2509  15.3174  15.5709  15.5978  15.6626  15.7515  15.9187
    16.0204  16.0542  16.0750  16.1528  16.2202  16.2530  16.2817  16.3323
    16.3673  16.4266  16.4436  16.5021  16.5764  16.6284  16.6449  16.6813
    16.6966  16.7418  16.8123  16.8686  16.8846  16.8963  16.9303  16.9877
    17.0503  17.0556  17.0687  17.1131  17.1156  17.2045  17.2254  17.2555

          k = 0.0000-0.5000-0.5000 ( 30624 PWs)   bands (ev):

   -43.2381 -43.0285 -42.8529 -42.8284 -42.8069 -42.7752 -42.7308 -42.6977
   -42.6612 -42.6302 -42.6041 -42.5819 -42.5565 -42.5555 -42.5421 -42.5342
   -19.6398 -19.5503 -19.5248 -19.4456 -19.3886 -19.3711 -19.3412 -19.3281
   -19.2934 -19.2856 -19.2803 -19.2583 -19.2301 -19.2076 -19.2007 -19.1752
   -19.1675 -19.1595 -19.1485 -19.1357 -19.1032 -19.0927 -19.0811 -19.0670
   -19.0573 -19.0367 -19.0286 -19.0131 -18.9985 -18.9696 -18.9484 -18.9368
   -18.8976 -18.8919 -18.8842 -18.8676 -18.8483 -18.8398 -18.8216 -18.8170
   -18.8055 -18.7914 -18.7828 -18.7629 -18.7524 -18.7381 -18.7324 -18.7173
    -2.7083  -2.6671  -2.2610  -2.1881  -1.4455  -1.4188  -1.3616  -1.3303
    -1.1505  -1.0422  -1.0330  -0.9722  -0.9014  -0.7972  -0.6935  -0.6401
    -0.6255  -0.6123  -0.4979  -0.4746  -0.3706  -0.3060  -0.2255  -0.1632
    -0.1232  -0.0936  -0.0758  -0.0318   0.0876   0.1072   0.1410   0.1951
     6.0265   6.2040   6.4490   6.5051   6.5982   6.8027   7.0099   7.0703
     7.1225   7.2310   7.3232   7.3733   7.4152   7.4789   7.5033   7.5295
     7.5818   7.7554   7.7997   7.9491   7.9690   8.0128   8.0873   8.1205
     8.2296   8.2496   8.3310   8.4263   8.4813   8.5286   8.7700   8.8336
     9.0921   9.1234   9.1747   9.2555   9.3993   9.4381   9.4809   9.5714
     9.5883   9.6777   9.7367   9.7841   9.8209   9.8354   9.9411   9.9606
     9.9913  10.0439  10.0774  10.0892  10.1534  10.1762  10.2635  10.3098
    10.3314  10.3503  10.4716  10.5030  10.5322  10.5977  10.6468  10.6509
    10.6724  10.7481  10.7802  10.8341  10.9077  10.9211  10.9536  11.0093
    11.0768  11.1183  11.2032  11.2627  11.3175  11.3576  11.4083  11.4211
    11.4930  11.5306  11.5743  11.6362  11.6542  11.6791  11.7415  11.7747
    11.8254  11.8322  11.9373  12.0327  12.0601  12.1173  12.3982  12.4186
    13.9853  14.0685  14.1794  14.3409  14.4108  14.4721  14.8359  14.8788
    14.9333  15.0267  15.2112  15.2596  15.3107  15.3623  15.4955  15.6038
    15.7420  15.7764  15.8553  15.8959  16.0448  16.1161  16.2092  16.2463
    16.3015  16.3366  16.3943  16.4211  16.4680  16.5203  16.6679  16.7357
    16.7603  16.7777  16.8021  16.8349  16.9197  16.9354  17.0098  17.1044
    17.1147  17.1341  17.1722  17.1803  17.2406  17.2850  17.3037  17.3400

          k =-0.5000-0.5000-0.5000 ( 30688 PWs)   bands (ev):

   -43.2381 -43.0285 -42.8530 -42.8282 -42.8068 -42.7754 -42.7310 -42.6978
   -42.6611 -42.6301 -42.6039 -42.5820 -42.5565 -42.5555 -42.5421 -42.5343
   -19.6398 -19.5502 -19.5245 -19.4423 -19.3873 -19.3726 -19.3424 -19.3254
   -19.3050 -19.2894 -19.2831 -19.2426 -19.2165 -19.2069 -19.1940 -19.1827
   -19.1770 -19.1755 -19.1368 -19.1270 -19.1197 -19.0941 -19.0765 -19.0577
   -19.0504 -19.0429 -19.0247 -19.0196 -18.9936 -18.9694 -18.9540 -18.9405
   -18.9002 -18.8956 -18.8840 -18.8665 -18.8523 -18.8380 -18.8256 -18.8244
   -18.8060 -18.7898 -18.7774 -18.7609 -18.7531 -18.7357 -18.7278 -18.7150
    -2.4765  -2.3869  -2.2550  -2.2043  -1.9935  -1.7731  -1.7287  -1.6669
    -0.8547  -0.8213  -0.7792  -0.7674  -0.7417  -0.7046  -0.6532  -0.5889
    -0.4745  -0.4562  -0.4085  -0.3897  -0.3492  -0.3083  -0.2491  -0.2262
    -0.1907  -0.1573  -0.1314  -0.0721  -0.0515   0.0142   0.0240   0.0620
     6.4239   6.4432   6.5448   6.6406   6.7100   6.7515   6.8014   6.8267
     6.8655   6.9773   7.1228   7.1533   7.3082   7.4357   7.4786   7.6152
     7.6464   7.7237   7.7617   7.8137   7.9125   7.9690   8.0629   8.4777
     8.6138   8.6698   8.7732   8.8160   8.8821   8.9376   8.9903   9.0227
     9.1100   9.1645   9.2096   9.2821   9.3171   9.3798   9.3975   9.4358
     9.4657   9.5053   9.5127   9.5419   9.6250   9.6572   9.7232   9.7492
     9.7598   9.8431   9.8755   9.9142  10.0285  10.0602  10.1352  10.1685
    10.3095  10.3809  10.4477  10.4647  10.5393  10.5555  10.5806  10.6330
    10.6861  10.6965  10.7492  10.8199  10.8605  10.8857  10.9577  11.0135
    11.0326  11.0776  11.2012  11.2552  11.2799  11.3189  11.3604  11.4628
    11.5753  11.6168  11.6432  11.6640  11.7873  11.8069  11.8198  11.8872
    11.9494  11.9903  12.0227  12.1498  12.1797  12.2234  12.2660  12.3422
    14.3326  14.3793  14.4217  14.5074  14.5753  14.6063  14.7284  14.7657
    14.8614  14.9550  15.0232  15.1272  15.2135  15.2658  15.3111  15.4496
    15.4966  15.5136  15.7859  15.8136  15.8672  15.9013  15.9728  15.9956
    16.0815  16.1235  16.1446  16.2327  16.2974  16.3163  16.3882  16.7276
    16.8159  16.8379  16.9064  16.9741  16.9833  17.0326  17.0732  17.1922
    17.2019  17.2389  17.2489  17.2820  17.2989  17.3718  17.4009  17.4054

          k =-0.5000 0.0000 0.0000 ( 30590 PWs)   bands (ev):

   -43.2381 -43.0285 -42.8534 -42.8274 -42.8070 -42.7756 -42.7314 -42.6971
   -42.6614 -42.6302 -42.6013 -42.5831 -42.5556 -42.5541 -42.5508 -42.5290
   -19.6399 -19.5507 -19.5266 -19.4438 -19.3854 -19.3718 -19.3417 -19.3253
   -19.2983 -19.2881 -19.2726 -19.2640 -19.2420 -19.2177 -19.1923 -19.1712
   -19.1689 -19.1595 -19.1480 -19.1266 -19.1103 -19.0936 -19.0762 -19.0642
   -19.0448 -19.0341 -19.0300 -19.0059 -18.9874 -18.9715 -18.9464 -18.9295
   -18.9197 -18.9129 -18.8774 -18.8674 -18.8627 -18.8411 -18.8370 -18.8151
   -18.7924 -18.7770 -18.7684 -18.7645 -18.7606 -18.7488 -18.7306 -18.7112
    -2.9602  -2.7783  -1.8720  -1.7748  -1.5648  -1.5413  -1.5322  -1.3530
    -1.3286  -1.2005  -1.0013  -0.8785  -0.6667  -0.6495  -0.6174  -0.5811
    -0.5376  -0.4598  -0.4511  -0.4263  -0.4211  -0.3567  -0.3316  -0.2273
    -0.2077  -0.1277  -0.0918  -0.0411   0.0124   0.0387   0.0626   0.1913
     6.0765   6.1147   6.1600   6.3134   6.4878   6.6130   6.6387   6.7107
     7.2113   7.2786   7.2848   7.4161   7.4656   7.5577   7.5612   7.6480
     7.8676   7.9346   8.0012   8.0811   8.1119   8.2081   8.2390   8.3188
     8.3298   8.4610   8.5119   8.5507   8.5602   8.6483   8.6885   8.7418
     8.8127   8.9508   8.9933   9.0187   9.1063   9.4445   9.5450   9.6265
     9.6921   9.7253   9.7761   9.8261   9.8492   9.8901   9.9677  10.0234
    10.1154  10.1468  10.1655  10.1991  10.2274  10.2603  10.2780  10.4023
    10.4207  10.4754  10.4956  10.5503  10.5672  10.6025  10.6292  10.6703
    10.7080  10.7534  10.8051  10.8166  10.8683  10.9167  10.9447  10.9819
    10.9996  11.0292  11.0511  11.0640  11.2054  11.2595  11.3345  11.3569
    11.3870  11.3944  11.4730  11.4936  11.5678  11.6201  11.7058  11.7568
    11.7987  11.8459  11.9883  12.0339  12.4394  12.4807  12.5155  12.5490
    12.9909  13.6335  13.9718  14.1006  14.5486  14.6248  14.6921  14.8335
    14.9073  15.0027  15.0576  15.1362  15.3235  15.5759  15.6095  15.8095
    15.8333  15.9555  16.0253  16.1170  16.1814  16.2171  16.3317  16.3421
    16.3949  16.4601  16.5482  16.5773  16.6357  16.6570  16.6800  16.7571
    16.7678  16.8256  16.8347  16.8535  16.8727  16.9299  16.9679  16.9765
    17.0203  17.0261  17.0948  17.1226  17.1527  17.1651  17.1815  17.2501

          k = 0.0000-0.5000 0.0000 ( 30590 PWs)   bands (ev):

   -43.2381 -43.0285 -42.8529 -42.8284 -42.8069 -42.7752 -42.7308 -42.6977
   -42.6613 -42.6301 -42.6041 -42.5821 -42.5564 -42.5555 -42.5421 -42.5342
   -19.6399 -19.5503 -19.5261 -19.4460 -19.3885 -19.3709 -19.3419 -19.3266
   -19.2925 -19.2846 -19.2810 -19.2577 -19.2293 -19.2105 -19.2004 -19.1779
   -19.1671 -19.1585 -19.1487 -19.1356 -19.1025 -19.0915 -19.0805 -19.0672
   -19.0550 -19.0391 -19.0271 -19.0139 -18.9982 -18.9693 -18.9491 -18.9362
   -18.8978 -18.8919 -18.8847 -18.8670 -18.8460 -18.8401 -18.8258 -18.8189
   -18.8043 -18.7902 -18.7811 -18.7625 -18.7521 -18.7385 -18.7325 -18.7182
    -2.8850  -2.8770  -1.8488  -1.7282  -1.6261  -1.5342  -1.4575  -1.4250
    -1.3195  -1.1555  -1.0259  -0.8693  -0.6837  -0.6586  -0.5989  -0.5698
    -0.5633  -0.5332  -0.4394  -0.4206  -0.3803  -0.3581  -0.2894  -0.2590
    -0.1951  -0.1830  -0.1514  -0.0460   0.0431   0.0552   0.1184   0.1908
     6.0052   6.1055   6.2900   6.3359   6.3698   6.4878   6.7776   6.8312
     7.1928   7.2929   7.3254   7.4041   7.4371   7.5608   7.6075   7.6924
     7.7176   7.7828   8.0027   8.1494   8.1599   8.1786   8.2665   8.3238
     8.3895   8.4635   8.4776   8.5058   8.5511   8.6140   8.6918   8.7617
     8.7977   8.9550   9.0470   9.1046   9.1666   9.4072   9.5971   9.6464
     9.6878   9.7358   9.7705   9.8318   9.8500   9.8617   9.9373   9.9524
     9.9846  10.0726  10.1459  10.1591  10.2103  10.2986  10.3121  10.3816
    10.3894  10.4117  10.4310  10.4959  10.5392  10.5627  10.6043  10.6555
    10.7053  10.7375  10.7676  10.8742  10.9411  10.9463  10.9557  10.9775
    11.0400  11.1026  11.1295  11.1653  11.2051  11.2677  11.2859  11.3145
    11.4301  11.4681  11.4877  11.5432  11.6013  11.6334  11.6483  11.7006
    11.8284  11.8794  11.9809  12.0078  12.4786  12.5038  12.5176  12.5781
    13.3156  13.3631  14.1547  14.2583  14.3516  14.3840  14.7458  14.8200
    14.8558  14.8952  14.9120  15.3562  15.4079  15.4491  15.4848  15.8377
    15.9687  15.9846  16.0538  16.0920  16.1608  16.2666  16.3308  16.3669
    16.4103  16.4280  16.4400  16.4876  16.5876  16.6606  16.6983  16.7208
    16.8006  16.8397  16.8757  16.8939  16.9179  16.9815  17.0081  17.0316
    17.0563  17.1043  17.1169  17.1448  17.1666  17.1869  17.2251  17.2699

          k =-0.5000 0.0000 0.5000 ( 30624 PWs)   bands (ev):

   -43.2381 -43.0285 -42.8534 -42.8274 -42.8070 -42.7756 -42.7314 -42.6972
   -42.6613 -42.6303 -42.6013 -42.5830 -42.5557 -42.5541 -42.5508 -42.5290
   -19.6398 -19.5506 -19.5251 -19.4443 -19.3855 -19.3718 -19.3420 -19.3247
   -19.2988 -19.2889 -19.2737 -19.2641 -19.2402 -19.2173 -19.1968 -19.1709
   -19.1683 -19.1609 -19.1414 -19.1268 -19.1107 -19.0920 -19.0767 -19.0645
   -19.0450 -19.0369 -19.0315 -19.0062 -18.9868 -18.9716 -18.9462 -18.9298
   -18.9193 -18.9156 -18.8764 -18.8667 -18.8624 -18.8434 -18.8369 -18.8111
   -18.7928 -18.7775 -18.7670 -18.7642 -18.7605 -18.7494 -18.7312 -18.7118
    -2.7643  -2.5939  -2.3190  -2.0861  -1.4577  -1.4441  -1.4127  -1.3925
    -1.1577  -1.0904  -0.9668  -0.9431  -0.9218  -0.8315  -0.7159  -0.6825
    -0.6022  -0.5430  -0.4098  -0.3889  -0.3431  -0.3061  -0.2456  -0.1804
    -0.1282  -0.0972  -0.0494  -0.0350   0.0713   0.0816   0.0964   0.1786
     6.1106   6.1691   6.3448   6.6043   6.6503   6.9212   6.9756   7.0444
     7.0651   7.1499   7.2255   7.3866   7.4274   7.4656   7.5155   7.5430
     7.5729   7.6709   7.7199   7.7830   7.9494   7.9686   8.0831   8.1867
     8.2411   8.3910   8.4029   8.4987   8.5353   8.5915   8.8176   8.9001
     9.0017   9.0807   9.0914   9.2604   9.3857   9.4291   9.5225   9.5964
     9.6339   9.6871   9.7513   9.8136   9.8186   9.8773   9.9270   9.9625
    10.0236  10.0606  10.0717  10.1239  10.1644  10.2471  10.2909  10.3073
    10.3737  10.3937  10.4233  10.4631  10.5506  10.6373  10.6680  10.6840
    10.7075  10.7666  10.7810  10.8161  10.8469  10.8815  10.9205  10.9619
    11.0138  11.0514  11.1689  11.2145  11.3304  11.3878  11.3977  11.4438
    11.5469  11.5766  11.5912  11.6068  11.6459  11.6682  11.7202  11.7667
    11.8288  11.8449  11.8774  11.9370  12.0080  12.1593  12.2636  12.4727
    13.7846  13.9983  14.2271  14.2438  14.5468  14.6652  14.7751  14.8728
    15.0162  15.0684  15.1362  15.2932  15.3403  15.3919  15.5658  15.6560
    15.6647  15.8455  15.9192  15.9534  15.9933  16.0271  16.2268  16.2486
    16.2966  16.3192  16.4059  16.4940  16.5098  16.5887  16.6285  16.6827
    16.7178  16.7777  16.7971  16.8193  16.8586  16.9237  16.9375  16.9809
    17.0358  17.0635  17.1358  17.1701  17.1829  17.2640  17.2932  17.3386

          k =-0.5000 0.5000 0.0000 ( 30624 PWs)   bands (ev):

   -43.2381 -43.0285 -42.8530 -42.8282 -42.8068 -42.7754 -42.7310 -42.6978
   -42.6611 -42.6300 -42.6038 -42.5821 -42.5565 -42.5555 -42.5421 -42.5343
   -19.6399 -19.5503 -19.5264 -19.4422 -19.3872 -19.3726 -19.3415 -19.3228
   -19.3040 -19.2895 -19.2829 -19.2426 -19.2177 -19.2060 -19.1945 -19.1831
   -19.1805 -19.1759 -19.1379 -19.1297 -19.1185 -19.0943 -19.0774 -19.0532
   -19.0504 -19.0400 -19.0244 -19.0190 -18.9929 -18.9693 -18.9538 -18.9401
   -18.9010 -18.8954 -18.8847 -18.8658 -18.8516 -18.8395 -18.8302 -18.8252
   -18.8038 -18.7891 -18.7767 -18.7604 -18.7519 -18.7364 -18.7279 -18.7158
    -2.6147  -2.5825  -2.4180  -2.3832  -1.4099  -1.3486  -1.2852  -1.2733
    -1.1901  -1.0468  -1.0254  -0.9788  -0.7788  -0.7624  -0.6715  -0.6311
    -0.5527  -0.5349  -0.4652  -0.3771  -0.3767  -0.2788  -0.2383  -0.2129
    -0.2038  -0.1415  -0.0811  -0.0676  -0.0098   0.0186   0.0753   0.1019
     6.1351   6.2188   6.4297   6.5303   6.5566   6.6045   6.8072   6.8638
     6.9363   7.0827   7.1023   7.2920   7.4464   7.5569   7.5882   7.6763
     7.6985   7.7685   7.7977   7.9558   8.0035   8.0328   8.1412   8.1713
     8.2001   8.2577   8.4472   8.4690   8.7373   8.8248   8.9112   9.0824
     9.1944   9.3370   9.3761   9.4186   9.4620   9.4925   9.5339   9.5863
     9.6249   9.6733   9.8040   9.8439   9.8922   9.9063  10.0164  10.0194
    10.0338  10.0789  10.1295  10.1633  10.1924  10.2447  10.2766  10.3765
    10.3867  10.4333  10.4731  10.5479  10.5643  10.5749  10.6070  10.6300
    10.6770  10.6884  10.7387  10.7949  10.8522  10.8765  10.8910  10.9118
    10.9292  10.9625  11.0077  11.0163  11.1253  11.1600  11.1773  11.2521
    11.3236  11.3762  11.4332  11.4363  11.5333  11.5511  11.6024  11.7585
    11.8257  11.8443  11.9395  11.9578  12.1367  12.2766  12.3544  12.4590
    14.2413  14.2843  14.3146  14.4241  14.5394  14.5731  14.7013  14.7930
    14.8872  14.9097  14.9838  15.1134  15.2712  15.4187  15.4273  15.4915
    15.5708  15.6195  15.7422  15.8620  15.9112  15.9959  16.0622  16.0817
    16.1465  16.2713  16.3205  16.4352  16.4615  16.5108  16.5630  16.8125
    16.8714  16.9279  16.9355  16.9910  17.0003  17.0334  17.0559  17.0703
    17.1260  17.1596  17.1902  17.2146  17.2455  17.2781  17.3359  17.3622

     the Fermi energy is    14.8389 ev

!    total energy              =   -4480.66519503 Ry
     total all-electron energy =    -38603.277780 Ry
     estimated scf accuracy    <          5.1E-09 Ry
     smearing contrib. (-TS)   =      -0.00362380 Ry
     internal energy E=F+TS    =   -4480.66157123 Ry

     The total energy is F=E-TS. E is the sum of the following terms:
     one-electron contribution =    -814.47809530 Ry
     hartree contribution      =     667.29649527 Ry
     xc contribution           =    -528.99791839 Ry
     ewald contribution        =   -1949.49161220 Ry
     one-center paw contrib.   =   -1854.99044061 Ry

     convergence has been achieved in  21 iterations

     Forces acting on atoms (cartesian axes, Ry/au):

     atom    1 type  1   force =    -0.00491222   -0.00406048   -0.00363606
     atom    2 type  2   force =     0.00041814   -0.00788302   -0.00788376
     atom    3 type  1   force =    -0.00393718    0.00028865   -0.00085151
     atom    4 type  2   force =     0.00038942   -0.00095922   -0.00087094
     atom    5 type  3   force =     0.00122050   -0.00414942    0.00010582
     atom    6 type  2   force =    -0.00540205   -0.00369835   -0.00034979
     atom    7 type  3   force =     0.00021696    0.00043714   -0.00637208
     atom    8 type  2   force =    -0.00564835    0.00014440   -0.00477204
     atom    9 type  1   force =    -0.00463453   -0.00447197   -0.00015452
     atom   10 type  2   force =    -0.00057777   -0.00369322    0.00081815
     atom   11 type  3   force =    -0.00431833    0.00122115    0.00410216
     atom   12 type  2   force =    -0.00112742   -0.00129111    0.00479622
     atom   13 type  3   force =    -0.00023079   -0.00526939    0.00576815
     atom   14 type  2   force =    -0.00653859   -0.00659491    0.00308214
     atom   15 type  1   force =    -0.00013719   -0.00008995    0.00023591
     atom   16 type  2   force =    -0.00392972   -0.00043389    0.00028256
     atom   17 type  1   force =    -0.00492076   -0.00059023   -0.00538536
     atom   18 type  2   force =     0.00052725    0.00121937   -0.00678929
     atom   19 type  1   force =    -0.00356788    0.00315278   -0.00039345
     atom   20 type  2   force =     0.00027044    0.00511583   -0.00019786
     atom   21 type  1   force =    -0.00091131    0.00082655   -0.00094166
     atom   22 type  2   force =    -0.00436452   -0.00027965   -0.00083199
     atom   23 type  3   force =     0.00025861    0.00546355   -0.00481298
     atom   24 type  2   force =    -0.00639461    0.00495010   -0.00407459
     atom   25 type  3   force =    -0.00545286   -0.00026570    0.00073233
     atom   26 type  2   force =    -0.00148308    0.00009412    0.00132970
     atom   27 type  3   force =    -0.00449999    0.00468038    0.00465472
     atom   28 type  2   force =    -0.00113757    0.00696882    0.00546092
     atom   29 type  3   force =    -0.00170533   -0.00023847    0.00592008
     atom   30 type  2   force =    -0.00803275    0.00144489    0.00497170
     atom   31 type  1   force =     0.00057100    0.00416831    0.00036770
     atom   32 type  2   force =    -0.00417702    0.00637571    0.00050462
     atom   33 type  1   force =     0.00031566   -0.00637404   -0.00659943
     atom   34 type  2   force =     0.00597133   -0.00541774   -0.00384450
     atom   35 type  1   force =     0.00048906    0.00010020   -0.00041397
     atom   36 type  2   force =     0.00415267    0.00049707   -0.00003963
     atom   37 type  1   force =     0.00436324   -0.00267353    0.00044142
     atom   38 type  2   force =     0.00010077   -0.00325106   -0.00134116
     atom   39 type  3   force =     0.00402323    0.00035935   -0.00522368
     atom   40 type  2   force =     0.00100192   -0.00129574   -0.00553354
     atom   41 type  3   force =    -0.00063592   -0.00734389   -0.00002210
     atom   42 type  2   force =     0.00627606   -0.00465785    0.00159622
     atom   43 type  3   force =     0.00051751   -0.00039466    0.00545624
     atom   44 type  2   force =     0.00640021   -0.00008116    0.00552287
     atom   45 type  3   force =     0.00473846   -0.00461678    0.00548546
     atom   46 type  2   force =     0.00181583   -0.00808531    0.00493062
     atom   47 type  1   force =     0.00343599    0.00064818    0.00123488
     atom   48 type  2   force =    -0.00011187   -0.00136426    0.00097387
     atom   49 type  3   force =     0.00070439   -0.00022882   -0.00935388
     atom   50 type  2   force =     0.00703992    0.00016216   -0.00491869
     atom   51 type  1   force =    -0.00041554    0.00192598    0.00015433
     atom   52 type  2   force =     0.00429910    0.00353771    0.00020754
     atom   53 type  1   force =     0.00441265    0.00008296    0.00099189
     atom   54 type  2   force =    -0.00073407   -0.00068862   -0.00141250
     atom   55 type  1   force =     0.00405004    0.00379565   -0.00431715
     atom   56 type  2   force =    -0.00003258    0.00682524   -0.00423752
     atom   57 type  3   force =    -0.00021298    0.00008952    0.00095392
     atom   58 type  2   force =     0.00635850    0.00078686    0.00140211
     atom   59 type  3   force =    -0.00049587    0.00669063    0.00503961
     atom   60 type  2   force =     0.00668164    0.00433400    0.00413881
     atom   61 type  1   force =     0.00471136   -0.00036946    0.00359801
     atom   62 type  2   force =    -0.00027051    0.00077604    0.00876345
     atom   63 type  3   force =     0.00436554    0.00594440    0.00004955
     atom   64 type  2   force =     0.00085373    0.00770420    0.00150194

     Total force =     0.052876     Total SCF correction =     0.000201


     Computing stress (Cartesian axis) and pressure

          total   stress  (Ry/bohr**3)                   (kbar)     P=       21.80
   0.00012929   0.00004157  -0.00003085           19.02        6.12       -4.54
   0.00004157   0.00010792  -0.00004415            6.12       15.88       -6.50
  -0.00003085  -0.00004415   0.00020746           -4.54       -6.50       30.52

 
     init_run     :      2.99s CPU      3.13s WALL (       1 calls)
     electrons    :    147.36s CPU    150.41s WALL (       1 calls)
     forces       :      1.67s CPU      1.71s WALL (       1 calls)
     stress       :     15.96s CPU     16.10s WALL (       1 calls)

     Called by init_run:
     wfcinit      :      2.54s CPU      2.63s WALL (       1 calls)
     potinit      :      0.21s CPU      0.22s WALL (       1 calls)
     hinit0       :      0.12s CPU      0.13s WALL (       1 calls)

     Called by electrons:
     c_bands      :    125.66s CPU    127.79s WALL (      21 calls)
     sum_band     :     15.34s CPU     15.84s WALL (      21 calls)
     v_of_rho     :      0.85s CPU      0.88s WALL (      22 calls)
     newd         :      1.27s CPU      1.52s WALL (      22 calls)
     PAW_pot      :      3.44s CPU      3.51s WALL (      22 calls)
     mix_rho      :      0.99s CPU      1.07s WALL (      21 calls)

     Called by c_bands:
     init_us_2    :      1.73s CPU      1.76s WALL (      90 calls)
     init_us_2:cp :      1.73s CPU      1.76s WALL (      90 calls)
     cegterg      :    114.62s CPU    116.67s WALL (      42 calls)

     Called by *egterg:
     cdiaghg      :     11.04s CPU     11.20s WALL (     214 calls)
     h_psi        :     58.31s CPU     59.15s WALL (     216 calls)
     s_psi        :     14.54s CPU     14.64s WALL (     216 calls)
     g_psi        :      0.27s CPU      0.27s WALL (     172 calls)

     Called by h_psi:
     h_psi:calbec :     14.47s CPU     14.57s WALL (     216 calls)
     vloc_psi     :     28.60s CPU     29.02s WALL (     216 calls)
     add_vuspsi   :     14.67s CPU     14.80s WALL (     216 calls)

     General routines
     calbec       :     21.28s CPU     21.43s WALL (     268 calls)
     fft          :      0.39s CPU      0.40s WALL (     267 calls)
     ffts         :      0.50s CPU      0.51s WALL (     439 calls)
     fftw         :     29.84s CPU     30.29s WALL (   61186 calls)
 
     Parallel routines
 
     PWSCF        :   2m48.22s CPU   2m51.70s WALL

 
   This run was terminated on:  12:23:56  14May2026            

=------------------------------------------------------------------------------=
   JOB DONE.
=------------------------------------------------------------------------------=
