
     Program PWSCF v.7.1 starts on 14May2026 at 12:13: 3 

     This program is part of the open-source Quantum ESPRESSO suite
     for quantum simulation of materials; please cite
         "P. Giannozzi et al., J. Phys.:Condens. Matter 21 395502 (2009);
         "P. Giannozzi et al., J. Phys.:Condens. Matter 29 465901 (2017);
         "P. Giannozzi et al., J. Chem. Phys. 152 154105 (2020);
          URL http://www.quantum-espresso.org", 
     in publications or presentations arising from this work. More details at
     http://www.quantum-espresso.org/quote

     Parallel version (MPI & OpenMP), running on      32 processor cores
     Number of MPI processes:                32
     Threads/MPI process:                     1

     MPI processes distributed on     1 nodes
     91252 MiB available memory on the printing compute node when the environment starts
 
     Reading input from TiAlN_x025optimalvolume841355.in

     Current dimensions of program PWSCF are:
     Max number of different atomic species (ntypx) = 10
     Max number of k-points (npk) = 150000
     Max angular momentum in pseudopotentials (lmaxx) =  4
     file Al.pbe-n-kjpaw_psl.1.0.0.UPF: wavefunction(s)  3S 3P renormalized
     file N.pbe-n-kjpaw_psl.1.0.0.UPF: wavefunction(s)  2S renormalized
     file Ti.pbe-spn-kjpaw_psl.1.0.0.UPF: wavefunction(s)  3S 3P 3D renormalized
 
     K-points division:     npool     =       4
     R & G space division:  proc/nbgrp/npool/nimage =       8
     Subspace diagonalization in iterative solution of the eigenvalue problem:
     one sub-group per band group will be used
     scalapack distributed-memory algorithm (size of sub-group:  2*  2 procs)

 
     Parallelization info
     --------------------
     sticks:   dense  smooth     PW     G-vecs:    dense   smooth      PW
     Min         603     603    164                31497    31497    4478
     Max         604     604    165                31502    31502    4479
     Sum        4825    4825   1313               251991   251991   35825
 
     Using Slab Decomposition
 


     bravais-lattice index     =            0
     lattice parameter (alat)  =      15.8993  a.u.
     unit-cell volume          =    4019.1521 (a.u.)^3
     number of atoms/cell      =           64
     number of atomic types    =            3
     number of electrons       =       472.00
     number of Kohn-Sham states=          283
     kinetic-energy cutoff     =      60.0000  Ry
     charge density cutoff     =     240.0000  Ry
     scf convergence threshold =      1.0E-08
     mixing beta               =       0.2000
     number of iterations used =            8  local-TF  mixing
     Exchange-correlation= SLA  PW   PBX  PBC
                           (   1   4   3   4   0   0   0)

     celldm(1)=  15.899305  celldm(2)=   0.000000  celldm(3)=   0.000000
     celldm(4)=   0.000000  celldm(5)=   0.000000  celldm(6)=   0.000000

     crystal axes: (cart. coord. in units of alat)
               a(1) = (   1.000000   0.000000   0.000000 )  
               a(2) = (   0.000000   1.000000   0.000000 )  
               a(3) = (   0.000000   0.000000   1.000000 )  

     reciprocal axes: (cart. coord. in units 2 pi/alat)
               b(1) = (  1.000000  0.000000  0.000000 )  
               b(2) = (  0.000000  1.000000  0.000000 )  
               b(3) = (  0.000000  0.000000  1.000000 )  


     PseudoPot. # 1 for Al read from file:
     ../../../pseudo/Al.pbe-n-kjpaw_psl.1.0.0.UPF
     MD5 check sum: 502b6b27b9c6270cab5dd1084b96fa6d
     Pseudo is Projector augmented-wave + core cor, Zval =  3.0
     Generated using &quot;atomic&quot; code by A. Dal Corso  v.6.3
     Shape of augmentation charge: PSQ
     Using radial grid of 1135 points,  6 beta functions with: 
                l(1) =   0
                l(2) =   0
                l(3) =   1
                l(4) =   1
                l(5) =   2
                l(6) =   2
     Q(r) pseudized with 0 coefficients 


     PseudoPot. # 2 for N  read from file:
     ../../../pseudo/N.pbe-n-kjpaw_psl.1.0.0.UPF
     MD5 check sum: 14c48229446f9f2d411169a3abcbc3fa
     Pseudo is Projector augmented-wave + core cor, Zval =  5.0
     Generated using &quot;atomic&quot; code by A. Dal Corso  v.6.3
     Shape of augmentation charge: PSQ
     Using radial grid of 1085 points,  4 beta functions with: 
                l(1) =   0
                l(2) =   0
                l(3) =   1
                l(4) =   1
     Q(r) pseudized with 0 coefficients 


     PseudoPot. # 3 for Ti read from file:
     ../../../pseudo/Ti.pbe-spn-kjpaw_psl.1.0.0.UPF
     MD5 check sum: 01f69b0d8ba4438b2e03ac6ea4af1c0b
     Pseudo is Projector augmented-wave + core cor, Zval = 12.0
     Generated using &quot;atomic&quot; code by A. Dal Corso  v.6.2.2
     Shape of augmentation charge: PSQ
     Using radial grid of 1177 points,  6 beta functions with: 
                l(1) =   0
                l(2) =   0
                l(3) =   1
                l(4) =   1
                l(5) =   2
                l(6) =   2
     Q(r) pseudized with 0 coefficients 


     atomic species   valence    mass     pseudopotential
        Al             3.00    26.98200     Al( 1.00)
        N              5.00    14.00700     N ( 1.00)
        Ti            12.00    47.86700     Ti( 1.00)

     No symmetry found



   Cartesian axes

     site n.     atom                  positions (alat units)
         1           Al  tau(   1) = (   0.0037039  -0.0000813   0.0012738  )
         2           N   tau(   2) = (   0.2425685  -0.0048400  -0.0084799  )
         3           Al  tau(   3) = (   0.0004885   0.2436746   0.2512259  )
         4           N   tau(   4) = (   0.2508900   0.2491656   0.2546728  )
         5           Ti  tau(   5) = (   0.2544202  -0.0074899   0.2501968  )
         6           N   tau(   6) = (   0.0015534   0.0070631   0.2500175  )
         7           Ti  tau(   7) = (   0.2530674   0.2522482   0.0006647  )
         8           N   tau(   8) = (   0.0026966   0.2412289   0.0094123  )
         9           Al  tau(   9) = (   0.0029671   0.0039123   0.4982949  )
        10           N   tau(  10) = (   0.2425477   0.0050727   0.5068856  )
        11           Ti  tau(  11) = (  -0.0080797   0.2526228   0.7496871  )
        12           N   tau(  12) = (   0.2492309   0.2509331   0.7445238  )
        13           Al  tau(  13) = (   0.2447560  -0.0006046   0.7476100  )
        14           N   tau(  14) = (   0.0070748   0.0016622   0.7484653  )
        15           Al  tau(  15) = (   0.2485056   0.2482920   0.5000485  )
        16           N   tau(  16) = (   0.0061400   0.2427092   0.4918380  )
        17           Ti  tau(  17) = (  -0.0027333   0.4993244   0.0027143  )
        18           N   tau(  18) = (   0.2481227   0.5055841  -0.0093265  )
        19           Ti  tau(  19) = (   0.0006178   0.7451761   0.2520098  )
        20           N   tau(  20) = (   0.2499829   0.7484607   0.2382782  )
        21           Ti  tau(  21) = (   0.2464750   0.5061548   0.2507485  )
        22           N   tau(  22) = (   0.0004022   0.4862453   0.2493163  )
        23           Al  tau(  23) = (   0.2472173   0.7496061  -0.0083412  )
        24           N   tau(  24) = (   0.0067259   0.7567477   0.0005904  )
        25           Ti  tau(  25) = (  -0.0009580   0.5017547   0.4963051  )
        26           N   tau(  26) = (   0.2486488   0.4917125   0.5082905  )
        27           Ti  tau(  27) = (  -0.0079032   0.7450418   0.7454631  )
        28           N   tau(  28) = (   0.2492745   0.7467929   0.7522843  )
        29           Al  tau(  29) = (   0.2503496   0.4992657   0.7478089  )
        30           N   tau(  30) = (   0.0080633   0.4981274   0.7485817  )
        31           Ti  tau(  31) = (   0.2502500   0.7457520   0.4950071  )
        32           N   tau(  32) = (   0.0016233   0.7593860   0.4979530  )
        33           Ti  tau(  33) = (   0.5013994  -0.0007385   0.0008541  )
        34           N   tau(  34) = (   0.7596751  -0.0007504  -0.0004749  )
        35           Al  tau(  35) = (   0.4977463   0.2508674   0.2534052  )
        36           N   tau(  36) = (   0.7464038   0.2494425   0.2506327  )
        37           Ti  tau(  37) = (   0.7438894  -0.0056219   0.2483389  )
        38           N   tau(  38) = (   0.4985391   0.0099927   0.2498749  )
        39           Ti  tau(  39) = (   0.7448933   0.2505541  -0.0041688  )
        40           N   tau(  40) = (   0.4963239   0.2486709   0.0104050  )
        41           Ti  tau(  41) = (   0.5005824  -0.0038738   0.4981498  )
        42           N   tau(  42) = (   0.7587883   0.0008161   0.4995520  )
        43           Ti  tau(  43) = (   0.5066564   0.2461981   0.7488176  )
        44           N   tau(  44) = (   0.7484195   0.2505174   0.7474968  )
        45           Ti  tau(  45) = (   0.7465012   0.0002022   0.7494715  )
        46           N   tau(  46) = (   0.4875068   0.0010691   0.7483064  )
        47           Ti  tau(  47) = (   0.7463869   0.2514110   0.5035900  )
        48           N   tau(  48) = (   0.4912799   0.2481699   0.4913956  )
        49           Ti  tau(  49) = (   0.5017475   0.4994176   0.0011365  )
        50           N   tau(  50) = (   0.7496777   0.4998682  -0.0010598  )
        51           Ti  tau(  51) = (   0.4979731   0.7491603   0.2506375  )
        52           N   tau(  52) = (   0.7477171   0.7483642   0.2486366  )
        53           Ti  tau(  53) = (   0.7516116   0.5043226   0.2485163  )
        54           N   tau(  54) = (   0.4985984   0.4893512   0.2497708  )
        55           Ti  tau(  55) = (   0.7474150   0.7474704  -0.0013458  )
        56           N   tau(  56) = (   0.4905119   0.7490429   0.0010828  )
        57           Ti  tau(  57) = (   0.5001292   0.5028772   0.4982630  )
        58           N   tau(  58) = (   0.7493102   0.4982133   0.5002687  )
        59           Ti  tau(  59) = (   0.5061049   0.7513652   0.7469466  )
        60           N   tau(  60) = (   0.7480053   0.7477760   0.7487993  )
        61           Ti  tau(  61) = (   0.7485717   0.4991051   0.7489040  )
        62           N   tau(  62) = (   0.4906489   0.4975769   0.7486138  )
        63           Ti  tau(  63) = (   0.7477473   0.7464282   0.5005564  )
        64           N   tau(  64) = (   0.4976340   0.7491184   0.4976915  )

     number of k points=     8  Gaussian smearing, width (Ry)=  0.0050
                       cart. coord. in units 2pi/alat
        k(    1) = (   0.0000000   0.0000000   0.0000000), wk =   0.2500000
        k(    2) = (   0.0000000   0.0000000  -0.5000000), wk =   0.2500000
        k(    3) = (   0.0000000  -0.5000000  -0.5000000), wk =   0.2500000
        k(    4) = (  -0.5000000  -0.5000000  -0.5000000), wk =   0.2500000
        k(    5) = (  -0.5000000   0.0000000   0.0000000), wk =   0.2500000
        k(    6) = (   0.0000000  -0.5000000   0.0000000), wk =   0.2500000
        k(    7) = (  -0.5000000   0.0000000   0.5000000), wk =   0.2500000
        k(    8) = (  -0.5000000   0.5000000   0.0000000), wk =   0.2500000

     Dense  grid:   251991 G-vectors     FFT dimensions: (  80,  80,  80)

     Estimated max dynamical RAM per process >     233.70 MB

     Estimated total dynamical RAM >       7.12 GB

     Check: negative core charge=   -0.000028

     Initial potential from superposition of free atoms

     starting charge     471.9460, renormalised to     472.0000
     Starting wfcs are  400 randomized atomic wfcs
     Checking if some PAW data can be deallocated... 

     total cpu time spent up to now is        3.9 secs

     Self-consistent Calculation

     iteration #  1     ecut=    60.00 Ry     beta= 0.20
     Davidson diagonalization with overlap
     ethr =  1.00E-02,  avg # of iterations =  2.0

     total cpu time spent up to now is       11.7 secs

     total energy              =   -5637.08118904 Ry
     estimated scf accuracy    <      20.77364039 Ry

     iteration #  2     ecut=    60.00 Ry     beta= 0.20
     Davidson diagonalization with overlap
     ethr =  4.40E-03,  avg # of iterations =  1.0

     total cpu time spent up to now is       17.9 secs

     total energy              =   -5631.93083790 Ry
     estimated scf accuracy    <      11.88087153 Ry

     iteration #  3     ecut=    60.00 Ry     beta= 0.20
     Davidson diagonalization with overlap
     ethr =  2.52E-03,  avg # of iterations =  3.8

     total cpu time spent up to now is       27.0 secs

     total energy              =   -5634.88718712 Ry
     estimated scf accuracy    <       0.94562652 Ry

     iteration #  4     ecut=    60.00 Ry     beta= 0.20
     Davidson diagonalization with overlap
     ethr =  2.00E-04,  avg # of iterations =  4.0

     total cpu time spent up to now is       35.3 secs

     total energy              =   -5634.97528665 Ry
     estimated scf accuracy    <       0.25501796 Ry

     iteration #  5     ecut=    60.00 Ry     beta= 0.20
     Davidson diagonalization with overlap
     ethr =  5.40E-05,  avg # of iterations =  4.4

     total cpu time spent up to now is       44.8 secs

     total energy              =   -5634.90744763 Ry
     estimated scf accuracy    <       0.32419287 Ry

     iteration #  6     ecut=    60.00 Ry     beta= 0.20
     Davidson diagonalization with overlap
     ethr =  5.40E-05,  avg # of iterations =  9.4

     total cpu time spent up to now is       58.4 secs

     total energy              =   -5634.98473251 Ry
     estimated scf accuracy    <       0.16170577 Ry

     iteration #  7     ecut=    60.00 Ry     beta= 0.20
     Davidson diagonalization with overlap
     ethr =  3.43E-05,  avg # of iterations =  2.0

     total cpu time spent up to now is       65.6 secs

     total energy              =   -5634.98895933 Ry
     estimated scf accuracy    <       0.02832376 Ry

     iteration #  8     ecut=    60.00 Ry     beta= 0.20
     Davidson diagonalization with overlap
     c_bands:  1 eigenvalues not converged
     ethr =  6.00E-06,  avg # of iterations = 10.4

     total cpu time spent up to now is       79.3 secs

     total energy              =   -5634.99503884 Ry
     estimated scf accuracy    <       0.00134954 Ry

     iteration #  9     ecut=    60.00 Ry     beta= 0.20
     Davidson diagonalization with overlap
     c_bands:  2 eigenvalues not converged
     ethr =  2.86E-07,  avg # of iterations = 15.6

     total cpu time spent up to now is       95.0 secs

     total energy              =   -5634.99501642 Ry
     estimated scf accuracy    <       0.00160807 Ry

     iteration # 10     ecut=    60.00 Ry     beta= 0.20
     Davidson diagonalization with overlap
     ethr =  2.86E-07,  avg # of iterations =  2.0

     total cpu time spent up to now is      102.1 secs

     total energy              =   -5634.99495800 Ry
     estimated scf accuracy    <       0.00031084 Ry

     iteration # 11     ecut=    60.00 Ry     beta= 0.20
     Davidson diagonalization with overlap
     ethr =  6.59E-08,  avg # of iterations =  9.4

     total cpu time spent up to now is      116.0 secs

     total energy              =   -5634.99507225 Ry
     estimated scf accuracy    <       0.00042249 Ry

     iteration # 12     ecut=    60.00 Ry     beta= 0.20
     Davidson diagonalization with overlap
     ethr =  6.59E-08,  avg # of iterations =  1.9

     total cpu time spent up to now is      123.1 secs

     total energy              =   -5634.99507092 Ry
     estimated scf accuracy    <       0.00014815 Ry

     iteration # 13     ecut=    60.00 Ry     beta= 0.20
     Davidson diagonalization with overlap
     ethr =  3.14E-08,  avg # of iterations =  2.0

     total cpu time spent up to now is      130.1 secs

     total energy              =   -5634.99504714 Ry
     estimated scf accuracy    <       0.00008486 Ry

     iteration # 14     ecut=    60.00 Ry     beta= 0.20
     Davidson diagonalization with overlap
     ethr =  1.80E-08,  avg # of iterations =  4.6

     total cpu time spent up to now is      139.2 secs

     total energy              =   -5634.99506533 Ry
     estimated scf accuracy    <       0.00000191 Ry

     iteration # 15     ecut=    60.00 Ry     beta= 0.20
     Davidson diagonalization with overlap
     ethr =  4.05E-10,  avg # of iterations =  5.2

     total cpu time spent up to now is      150.3 secs

     total energy              =   -5634.99506570 Ry
     estimated scf accuracy    <       0.00000264 Ry

     iteration # 16     ecut=    60.00 Ry     beta= 0.20
     Davidson diagonalization with overlap
     ethr =  4.05E-10,  avg # of iterations =  2.0

     total cpu time spent up to now is      158.3 secs

     total energy              =   -5634.99506582 Ry
     estimated scf accuracy    <       0.00000040 Ry

     iteration # 17     ecut=    60.00 Ry     beta= 0.20
     Davidson diagonalization with overlap
     ethr =  8.45E-11,  avg # of iterations =  8.8

     total cpu time spent up to now is      173.1 secs

     total energy              =   -5634.99506589 Ry
     estimated scf accuracy    <       0.00000015 Ry

     iteration # 18     ecut=    60.00 Ry     beta= 0.20
     Davidson diagonalization with overlap
     ethr =  3.22E-11,  avg # of iterations =  2.0

     total cpu time spent up to now is      180.8 secs

     total energy              =   -5634.99506589 Ry
     estimated scf accuracy    <       0.00000003 Ry

     iteration # 19     ecut=    60.00 Ry     beta= 0.20
     Davidson diagonalization with overlap
     ethr =  6.97E-12,  avg # of iterations =  5.1

     total cpu time spent up to now is      190.4 secs

     total energy              =   -5634.99506588 Ry
     estimated scf accuracy    <       0.00000003 Ry

     iteration # 20     ecut=    60.00 Ry     beta= 0.20
     Davidson diagonalization with overlap
     ethr =  6.97E-12,  avg # of iterations =  2.0

     total cpu time spent up to now is      197.7 secs

     End of self-consistent calculation

          k = 0.0000 0.0000 0.0000 ( 31463 PWs)   bands (ev):

   -42.0587 -41.7926 -41.7692 -41.7520 -41.7386 -41.7365 -41.7269 -41.7147
   -41.7108 -41.7087 -41.7062 -41.6906 -41.6859 -41.6731 -41.6608 -41.6534
   -41.6485 -41.6390 -41.6276 -41.6197 -41.6143 -41.6119 -41.5986 -41.5815
   -18.4609 -18.4378 -18.4307 -18.3738 -18.3649 -18.3605 -18.3577 -18.2964
   -18.2869 -18.2636 -18.2552 -18.2263 -18.2145 -18.2031 -18.1942 -18.1836
   -18.1759 -18.1734 -18.1647 -18.1504 -18.1442 -18.1424 -18.1379 -18.1278
   -18.1181 -18.1143 -18.1056 -18.1028 -18.0962 -18.0900 -18.0803 -18.0578
   -18.0413 -18.0229 -18.0099 -18.0001 -17.9906 -17.9825 -17.9798 -17.9726
   -17.9681 -17.9623 -17.9591 -17.9526 -17.9479 -17.9395 -17.9351 -17.9287
   -17.9101 -17.8989 -17.8938 -17.8862 -17.8830 -17.8784 -17.8694 -17.8536
   -17.8485 -17.8446 -17.8367 -17.8328 -17.8289 -17.8223 -17.8137 -17.8118
   -17.8029 -17.8000 -17.7949 -17.7848 -17.7813 -17.7786 -17.7668 -17.7627
    -1.6297  -0.5785  -0.4803  -0.4369  -0.2947  -0.2355  -0.1636   0.2509
     0.3452   0.3970   0.4169   0.4544   0.4874   0.5305   0.5538   0.5823
     0.5935   0.6734   0.7123   0.7764   0.8248   0.8918   0.9508   1.0058
     1.0635   1.0991   1.1278   1.1475   1.2178   1.2866   1.3086   1.3419
     7.2362   7.3024   7.3159   7.4303   8.3588   8.7018   8.7841   8.7903
     8.8103   8.8849   8.9000   8.9342   8.9511   8.9926   9.0576   9.2252
     9.2558   9.2600   9.2853   9.5434   9.6196   9.6852   9.7295   9.7496
     9.7968   9.8359   9.8939   9.9269   9.9501   9.9713  10.0016  10.0727
    10.1246  10.2518  10.3454  10.4002  10.4734  10.4912  10.5237  10.5323
    10.5372  10.5808  10.6001  10.6217  10.6346  10.6564  10.6861  10.7039
    10.7225  10.7869  10.8311  10.9007  10.9147  10.9709  11.0751  11.1047
    11.1271  11.1338  11.1783  11.2038  11.2393  11.4015  11.4437  11.5344
    11.5692  11.6100  11.6716  11.7620  11.8148  11.8802  11.8884  11.9140
    12.3176  12.3777  12.4171  12.4360  12.5353  12.5565  12.5733  12.6328
    12.6384  12.7817  12.7986  12.8428  12.8922  12.8943  12.9185  12.9433
    12.9709  12.9918  13.0460  13.1001  13.1511  13.2971  13.3899  13.4544
    14.1098  14.1237  14.1316  14.4080  14.4867  14.5167  14.5294  14.6234
    14.7731  15.7434  15.7845  15.9204  16.7943  16.8666  16.8918  16.9154
    16.9526  16.9840  17.0035  17.0143  17.0697  17.1024  17.1287  17.1445
    17.1799  17.1976  17.2497  17.2736  17.3065  17.3806  17.3821  17.4080
    17.4342  17.4635  17.4703  17.4881  17.5222  17.5478  17.5537  17.5853
    17.6066  17.6210  17.6370  17.6983  17.7167  17.7292  17.7436  17.7583
    17.7651  17.7893  17.8032  17.8072  17.8340  17.8413  17.8566  17.8610
    17.8928  17.8956  17.9132

          k = 0.0000 0.0000-0.5000 ( 31560 PWs)   bands (ev):

   -42.0587 -41.7876 -41.7744 -41.7492 -41.7425 -41.7374 -41.7277 -41.7140
   -41.7118 -41.7102 -41.7047 -41.6890 -41.6868 -41.6699 -41.6611 -41.6527
   -41.6487 -41.6376 -41.6268 -41.6198 -41.6160 -41.6117 -41.5999 -41.5816
   -18.4519 -18.4225 -18.4140 -18.3685 -18.3485 -18.3414 -18.3090 -18.3029
   -18.2996 -18.2898 -18.2590 -18.2561 -18.2437 -18.2335 -18.2215 -18.2114
   -18.2043 -18.1961 -18.1798 -18.1706 -18.1540 -18.1525 -18.1454 -18.1353
   -18.1337 -18.1234 -18.1062 -18.0912 -18.0782 -18.0591 -18.0415 -18.0305
   -18.0216 -18.0097 -18.0076 -17.9967 -17.9857 -17.9828 -17.9724 -17.9635
   -17.9595 -17.9533 -17.9436 -17.9380 -17.9275 -17.9198 -17.9148 -17.9094
   -17.8997 -17.8970 -17.8914 -17.8877 -17.8825 -17.8793 -17.8707 -17.8659
   -17.8578 -17.8529 -17.8463 -17.8384 -17.8362 -17.8250 -17.8165 -17.8143
   -17.8103 -17.8046 -17.7978 -17.7943 -17.7873 -17.7860 -17.7808 -17.7667
    -1.2797  -1.2312  -0.2210  -0.1760  -0.1535  -0.0741   0.0249   0.0306
     0.1058   0.1731   0.2094   0.3035   0.5129   0.5469   0.6572   0.6896
     0.7389   0.7656   0.7693   0.7919   0.8211   0.8559   0.9200   0.9333
     0.9677   1.0019   1.0264   1.0745   1.2444   1.2695   1.3109   1.4350
     7.4723   7.5438   7.8472   7.8729   7.9579   8.0341   8.6104   8.6427
     8.8324   8.8777   9.0214   9.0565   9.0975   9.1347   9.1696   9.2085
     9.3045   9.3645   9.3754   9.3941   9.4482   9.4759   9.5651   9.6227
     9.6848   9.7173   9.7891   9.8088   9.8258   9.8575   9.9103   9.9439
    10.0830  10.2845  10.4813  10.5218  10.5447  10.5847  10.6574  10.6786
    10.6863  10.7222  10.7584  10.7777  10.8247  10.8493  10.8662  10.8943
    10.9263  10.9408  10.9904  11.0102  11.0500  11.1314  11.1935  11.2075
    11.2830  11.3077  11.3443  11.4164  11.4615  11.5250  11.5700  11.6310
    11.6636  11.6653  11.7017  11.7236  11.7695  11.7863  11.8340  11.8835
    11.9112  11.9680  11.9973  12.0211  12.1053  12.1583  12.1865  12.2186
    12.2556  12.2759  12.4040  12.4666  12.6324  12.6496  12.6882  12.7205
    12.7577  12.8202  12.9142  12.9569  13.5082  13.5133  13.5212  13.5500
    13.7225  13.7562  14.9358  14.9871  15.0612  15.1620  15.2987  15.3621
    15.5148  15.6078  15.6374  15.6508  15.9974  16.0837  16.1412  16.1970
    16.7397  16.7960  16.9224  16.9723  16.9883  17.0544  17.0562  17.1172
    17.1571  17.1808  17.1931  17.2278  17.2446  17.2479  17.2745  17.3123
    17.3526  17.4191  17.4336  17.4619  17.4852  17.5028  17.5181  17.5219
    17.5336  17.6086  17.6405  17.6552  17.6822  17.6991  17.7160  17.7472
    17.7549  17.7890  17.8003  17.8485  17.8691  17.8874  17.9278  17.9520
    17.9703  17.9931  18.0102

          k = 0.0000-0.5000-0.5000 ( 31480 PWs)   bands (ev):

   -42.0587 -41.7865 -41.7715 -41.7539 -41.7429 -41.7403 -41.7230 -41.7165
   -41.7132 -41.7100 -41.7049 -41.6903 -41.6837 -41.6695 -41.6615 -41.6498
   -41.6495 -41.6359 -41.6266 -41.6196 -41.6173 -41.6128 -41.6003 -41.5815
   -18.4434 -18.4197 -18.4092 -18.3589 -18.3493 -18.3293 -18.3221 -18.3045
   -18.2960 -18.2821 -18.2739 -18.2644 -18.2457 -18.2364 -18.2256 -18.2241
   -18.2155 -18.2091 -18.1879 -18.1785 -18.1628 -18.1529 -18.1435 -18.1380
   -18.1255 -18.1092 -18.0916 -18.0760 -18.0661 -18.0634 -18.0378 -18.0310
   -18.0164 -18.0005 -17.9979 -17.9887 -17.9814 -17.9770 -17.9679 -17.9611
   -17.9513 -17.9458 -17.9450 -17.9380 -17.9304 -17.9251 -17.9179 -17.9149
   -17.9067 -17.9039 -17.9012 -17.8935 -17.8924 -17.8865 -17.8837 -17.8733
   -17.8672 -17.8573 -17.8507 -17.8447 -17.8364 -17.8257 -17.8173 -17.8124
   -17.8071 -17.8031 -17.7931 -17.7899 -17.7861 -17.7752 -17.7705 -17.7594
    -1.0702  -0.9384  -0.7991  -0.6629   0.0084   0.2161   0.2348   0.2444
     0.2650   0.3198   0.3466   0.3785   0.4111   0.4155   0.4506   0.4727
     0.5190   0.6484   0.6952   0.7508   0.8201   0.8529   0.8904   0.9190
     0.9506   1.0397   1.0683   1.1467   1.2568   1.3070   1.3489   1.3793
     7.6048   7.7779   7.8766   8.0243   8.2402   8.4447   8.5353   8.6944
     8.7289   8.8226   8.9123   8.9276   9.0003   9.1070   9.1829   9.1998
     9.2466   9.2741   9.3113   9.3395   9.4038   9.4664   9.4876   9.4913
     9.5426   9.6822   9.7579   9.8401  10.0123  10.0357  10.0565  10.0994
    10.2067  10.2380  10.3444  10.4035  10.6120  10.6491  10.6720  10.7156
    10.7484  10.7997  10.8255  10.8470  10.8886  10.9490  10.9586  11.0212
    11.0395  11.0491  11.0982  11.1499  11.1718  11.2024  11.2284  11.2591
    11.2972  11.3685  11.3974  11.4079  11.4422  11.4756  11.4995  11.5397
    11.5699  11.5908  11.6200  11.6696  11.6911  11.7500  11.7995  11.8114
    11.8603  11.8878  11.9174  11.9557  11.9773  12.0136  12.0569  12.0924
    12.1155  12.1347  12.1876  12.3101  12.4427  12.4973  12.5878  12.6604
    12.7444  12.8163  12.8303  12.9154  12.9611  13.0404  13.1382  13.2388
    14.7671  14.9451  15.0803  15.1338  15.3728  15.3871  15.3877  15.5097
    15.5166  15.6600  15.6997  15.9186  16.0051  16.0507  16.0972  16.1906
    16.2492  16.2820  16.3825  16.4010  16.4805  16.5685  16.6159  16.6723
    16.7769  16.9911  17.0450  17.1244  17.1339  17.1783  17.2120  17.2368
    17.2594  17.3078  17.3576  17.3721  17.3887  17.4586  17.4729  17.5775
    17.6003  17.6334  17.6735  17.6924  17.7194  17.7546  17.7793  17.8063
    17.8269  17.8720  17.9220  17.9671  17.9866  18.0281  18.0400  18.0934
    18.1207  18.1296  18.1667

          k =-0.5000-0.5000-0.5000 ( 31408 PWs)   bands (ev):

   -42.0587 -41.7866 -41.7705 -41.7515 -41.7426 -41.7412 -41.7257 -41.7203
   -41.7158 -41.7090 -41.7016 -41.6895 -41.6827 -41.6693 -41.6615 -41.6496
   -41.6490 -41.6358 -41.6265 -41.6198 -41.6174 -41.6115 -41.6009 -41.5824
   -18.4458 -18.4142 -18.4018 -18.3671 -18.3474 -18.3311 -18.3273 -18.3086
   -18.2933 -18.2773 -18.2739 -18.2607 -18.2392 -18.2351 -18.2247 -18.2226
   -18.2144 -18.2037 -18.1959 -18.1813 -18.1547 -18.1475 -18.1429 -18.1320
   -18.1305 -18.1049 -18.0980 -18.0884 -18.0757 -18.0567 -18.0490 -18.0390
   -18.0195 -18.0133 -17.9993 -17.9891 -17.9795 -17.9689 -17.9620 -17.9498
   -17.9458 -17.9428 -17.9378 -17.9345 -17.9309 -17.9224 -17.9220 -17.9154
   -17.9092 -17.9075 -17.9035 -17.8984 -17.8925 -17.8890 -17.8874 -17.8776
   -17.8725 -17.8648 -17.8498 -17.8446 -17.8395 -17.8309 -17.8251 -17.8155
   -17.7954 -17.7906 -17.7885 -17.7853 -17.7776 -17.7745 -17.7728 -17.7592
    -0.8806  -0.7714  -0.5764  -0.5298  -0.3732  -0.2515  -0.1884  -0.1703
     0.4415   0.4513   0.4860   0.5247   0.5591   0.5699   0.5811   0.6027
     0.6058   0.6252   0.6480   0.6774   0.7426   0.8091   0.8804   0.9483
     1.0240   1.0508   1.0905   1.1242   1.1783   1.2514   1.2961   1.3112
     7.9233   7.9362   8.0015   8.0521   8.2299   8.3579   8.6649   8.7923
     8.8082   8.8226   8.8816   8.9146   8.9294   8.9809   9.0313   9.1066
     9.2047   9.2361   9.3049   9.3703   9.3938   9.4639   9.5298   9.5820
     9.9237  10.0176  10.0840  10.1487  10.2228  10.2638  10.2710  10.3056
    10.3476  10.4018  10.4209  10.4335  10.4811  10.5179  10.5281  10.5819
    10.6063  10.6623  10.6690  10.7089  10.7547  10.7935  10.8017  10.8193
    10.8559  10.8844  10.9293  10.9500  10.9923  11.0153  11.0675  11.1296
    11.3083  11.3391  11.3631  11.4118  11.4223  11.4717  11.5027  11.5496
    11.5643  11.5829  11.5961  11.6298  11.6804  11.6930  11.7224  11.7812
    11.8016  11.8361  11.8853  11.9333  11.9886  12.0187  12.0857  12.1665
    12.1757  12.2805  12.3480  12.3814  12.4154  12.4908  12.5033  12.5530
    12.5988  12.6371  12.7624  12.9182  12.9410  13.0253  13.0718  13.1959
    15.3245  15.3489  15.4156  15.4389  15.4481  15.5107  15.5611  15.5662
    15.5885  15.6508  15.7247  15.7569  15.7847  15.8721  16.0363  16.1674
    16.1944  16.2595  16.2829  16.3388  16.3797  16.4359  16.4732  16.5142
    16.5427  16.5698  16.5965  16.6286  16.6552  16.6823  16.7161  16.9415
    17.0829  17.1270  17.1666  17.1913  17.2300  17.2782  17.2909  17.3516
    17.3834  17.6171  17.6934  17.7557  17.7672  17.8949  17.9220  17.9453
    18.1096  18.1411  18.1577  18.1702  18.1922  18.1997  18.2150  18.2221
    18.2414  18.2539  18.2607

          k =-0.5000 0.0000 0.0000 ( 31560 PWs)   bands (ev):

   -42.0587 -41.7914 -41.7696 -41.7517 -41.7390 -41.7380 -41.7266 -41.7172
   -41.7115 -41.7086 -41.7035 -41.6918 -41.6843 -41.6730 -41.6608 -41.6524
   -41.6492 -41.6386 -41.6275 -41.6197 -41.6145 -41.6103 -41.5995 -41.5823
   -18.4488 -18.4176 -18.4090 -18.3968 -18.3761 -18.3427 -18.3382 -18.3015
   -18.2902 -18.2728 -18.2578 -18.2474 -18.2313 -18.2237 -18.2154 -18.2040
   -18.1940 -18.1798 -18.1692 -18.1614 -18.1496 -18.1370 -18.1338 -18.1201
   -18.1175 -18.1126 -18.1076 -18.1003 -18.0841 -18.0784 -18.0588 -18.0526
   -18.0325 -18.0221 -18.0187 -17.9980 -17.9931 -17.9771 -17.9753 -17.9719
   -17.9643 -17.9546 -17.9463 -17.9408 -17.9343 -17.9324 -17.9230 -17.9149
   -17.9122 -17.9055 -17.8943 -17.8899 -17.8807 -17.8782 -17.8656 -17.8596
   -17.8485 -17.8472 -17.8391 -17.8318 -17.8232 -17.8202 -17.8169 -17.8152
   -17.8070 -17.8013 -17.7976 -17.7945 -17.7917 -17.7803 -17.7742 -17.7660
    -1.3888  -1.0392  -0.4198  -0.2066  -0.1641  -0.0528   0.0764   0.1012
     0.1417   0.1722   0.2340   0.3262   0.4172   0.5379   0.6277   0.6604
     0.7300   0.7484   0.7604   0.7900   0.8533   0.8732   0.8872   0.9224
     0.9975   1.0461   1.0666   1.1857   1.2293   1.2755   1.3042   1.3591
     7.5953   7.6357   7.6767   7.7972   7.8620   8.3051   8.3564   8.5162
     8.6311   8.9306   8.9424   8.9816   9.0637   9.1307   9.1878   9.2563
     9.3520   9.3879   9.4513   9.5263   9.5444   9.5802   9.6214   9.6768
     9.7193   9.7341   9.7999   9.8091   9.8924   9.9527   9.9742  10.0217
    10.1375  10.1875  10.4179  10.4779  10.5130  10.5561  10.5840  10.5965
    10.6068  10.6365  10.6429  10.6840  10.7628  10.7930  10.8378  10.8850
    10.9235  10.9457  10.9869  11.0490  11.1502  11.1718  11.1789  11.2598
    11.2934  11.4093  11.4433  11.5270  11.5508  11.5762  11.5939  11.6417
    11.6742  11.7281  11.7498  11.7757  11.8134  11.8322  11.8724  11.9022
    11.9108  11.9565  11.9753  11.9904  12.0127  12.0227  12.1125  12.1371
    12.2657  12.3451  12.4164  12.4709  12.5228  12.5998  12.6724  12.7330
    12.8461  12.8528  12.8805  12.9219  13.3622  13.4405  13.4498  13.5305
    13.5876  14.1338  14.6657  14.7128  15.2491  15.2980  15.3940  15.4185
    15.4767  15.5612  15.6603  15.7247  16.1150  16.1513  16.2594  16.2713
    16.5879  16.6582  16.9178  16.9365  16.9486  17.0040  17.0410  17.0512
    17.0583  17.1255  17.1419  17.1580  17.2372  17.3153  17.3201  17.3740
    17.3789  17.3867  17.4207  17.4252  17.4508  17.4726  17.5249  17.5436
    17.6033  17.6186  17.6375  17.6617  17.6744  17.7077  17.7288  17.7469
    17.7638  17.7854  17.8109  17.8181  17.8630  17.8802  17.8941  17.9160
    17.9483  17.9691  18.0156

          k = 0.0000-0.5000 0.0000 ( 31560 PWs)   bands (ev):

   -42.0587 -41.7899 -41.7682 -41.7575 -41.7417 -41.7356 -41.7222 -41.7166
   -41.7112 -41.7085 -41.7072 -41.6906 -41.6842 -41.6733 -41.6612 -41.6507
   -41.6498 -41.6366 -41.6266 -41.6197 -41.6169 -41.6124 -41.5990 -41.5815
   -18.4449 -18.4236 -18.4165 -18.3732 -18.3549 -18.3422 -18.3368 -18.3055
   -18.2935 -18.2740 -18.2703 -18.2563 -18.2483 -18.2312 -18.2160 -18.2034
   -18.2006 -18.1924 -18.1789 -18.1706 -18.1545 -18.1468 -18.1288 -18.1216
   -18.1147 -18.1061 -18.0948 -18.0867 -18.0791 -18.0632 -18.0604 -18.0469
   -18.0209 -18.0193 -18.0057 -18.0016 -17.9966 -17.9883 -17.9777 -17.9698
   -17.9594 -17.9535 -17.9473 -17.9388 -17.9356 -17.9218 -17.9203 -17.9171
   -17.9062 -17.9020 -17.8937 -17.8893 -17.8805 -17.8688 -17.8665 -17.8576
   -17.8564 -17.8532 -17.8427 -17.8400 -17.8353 -17.8288 -17.8219 -17.8124
   -17.8049 -17.8007 -17.7967 -17.7919 -17.7851 -17.7822 -17.7803 -17.7626
    -1.3446  -1.1400  -0.2505  -0.1759  -0.1608  -0.0729  -0.0137   0.0682
     0.0850   0.1591   0.1981   0.3599   0.4520   0.5330   0.6344   0.6949
     0.7053   0.7570   0.8221   0.8401   0.8485   0.8835   0.8957   0.9071
     0.9723   1.0054   1.0732   1.1889   1.2047   1.2711   1.2860   1.3600
     7.5622   7.5738   7.7047   7.8230   7.9753   8.2035   8.4199   8.5120
     8.8594   8.9730   8.9846   9.0423   9.0579   9.1197   9.1884   9.2327
     9.2642   9.3468   9.4175   9.4273   9.4832   9.5510   9.5980   9.6435
     9.6760   9.7158   9.7468   9.7819   9.8388   9.8885   9.9368   9.9676
    10.0562  10.3731  10.4397  10.4530  10.5435  10.5535  10.5730  10.6351
    10.6584  10.6946  10.7083  10.7539  10.7834  10.8170  10.8575  10.8687
    10.9509  10.9882  11.0278  11.0502  11.0973  11.1336  11.2231  11.2433
    11.2679  11.3884  11.4300  11.4867  11.5154  11.5484  11.5795  11.6200
    11.6832  11.6990  11.7487  11.7779  11.7985  11.8231  11.8651  11.8830
    11.9370  11.9918  12.0110  12.0145  12.0464  12.0735  12.1570  12.1851
    12.2387  12.2700  12.3609  12.4852  12.5607  12.6976  12.7302  12.7361
    12.7799  12.7907  12.8120  12.8960  13.4302  13.4410  13.5057  13.5274
    13.6009  13.9978  14.7364  14.8329  15.1969  15.2112  15.2918  15.4603
    15.5048  15.5548  15.6277  15.7415  15.9918  16.0447  16.2881  16.3457
    16.6556  16.6832  16.9004  17.0079  17.0295  17.0503  17.0934  17.0972
    17.1101  17.1280  17.1830  17.2098  17.2590  17.3036  17.3176  17.3474
    17.3699  17.4044  17.4164  17.4367  17.4783  17.5078  17.5291  17.5336
    17.5445  17.5776  17.6019  17.6297  17.6359  17.6983  17.7180  17.7278
    17.7563  17.8034  17.8298  17.8422  17.8781  17.8836  17.8925  17.9143
    17.9272  17.9474  17.9767

          k =-0.5000 0.0000 0.5000 ( 31480 PWs)   bands (ev):

   -42.0587 -41.7877 -41.7721 -41.7516 -41.7423 -41.7363 -41.7275 -41.7200
   -41.7129 -41.7091 -41.7013 -41.6893 -41.6861 -41.6697 -41.6610 -41.6526
   -41.6477 -41.6378 -41.6266 -41.6197 -41.6161 -41.6107 -41.6004 -41.5824
   -18.4442 -18.4160 -18.4027 -18.3670 -18.3530 -18.3297 -18.3216 -18.3154
   -18.2898 -18.2819 -18.2677 -18.2541 -18.2489 -18.2403 -18.2311 -18.2228
   -18.2196 -18.2087 -18.1881 -18.1712 -18.1653 -18.1504 -18.1398 -18.1253
   -18.1232 -18.1121 -18.1007 -18.0837 -18.0746 -18.0539 -18.0478 -18.0241
   -18.0142 -18.0133 -18.0062 -17.9950 -17.9853 -17.9803 -17.9710 -17.9561
   -17.9485 -17.9461 -17.9394 -17.9303 -17.9268 -17.9244 -17.9197 -17.9112
   -17.9089 -17.9019 -17.8966 -17.8923 -17.8856 -17.8831 -17.8733 -17.8694
   -17.8603 -17.8561 -17.8507 -17.8475 -17.8341 -17.8282 -17.8256 -17.8153
   -17.8120 -17.8032 -17.8004 -17.7888 -17.7845 -17.7806 -17.7685 -17.7606
    -1.0751  -0.9959  -0.7401  -0.5898   0.0254   0.0443   0.1891   0.2362
     0.2826   0.2860   0.3770   0.4020   0.4139   0.4477   0.4905   0.5224
     0.5414   0.6035   0.6670   0.7604   0.7737   0.8274   0.8582   0.9177
     1.0429   1.0610   1.1064   1.1747   1.2123   1.2586   1.3687   1.4018
     7.6575   7.7386   7.8637   8.0860   8.2210   8.2807   8.6025   8.6525
     8.7611   8.8466   8.8743   8.9515   8.9788   9.0263   9.0519   9.1958
     9.2302   9.2417   9.2810   9.3036   9.4324   9.4542   9.5089   9.6154
     9.6521   9.7347   9.7638   9.8810  10.0412  10.0754  10.1152  10.1905
    10.2329  10.2960  10.4392  10.4582  10.5122  10.5995  10.6761  10.7112
    10.7451  10.7603  10.7779  10.8260  10.8520  10.9050  10.9254  10.9717
    10.9836  11.0253  11.1099  11.1884  11.1994  11.2075  11.2557  11.2835
    11.3213  11.3627  11.3968  11.4151  11.4493  11.4617  11.5060  11.5573
    11.6082  11.6255  11.6317  11.6597  11.7077  11.7740  11.7861  11.8107
    11.8340  11.8433  11.8954  11.9284  11.9656  11.9825  12.0178  12.0461
    12.0699  12.0982  12.2286  12.4198  12.4569  12.5164  12.6499  12.6964
    12.7628  12.7653  12.8398  12.8740  12.9332  12.9471  13.1008  13.2524
    14.7384  14.9780  15.0691  15.2732  15.2990  15.3474  15.4168  15.4556
    15.5600  15.6650  15.8002  15.8152  15.9597  16.0315  16.1190  16.1522
    16.2451  16.3065  16.3296  16.3809  16.4868  16.5819  16.7025  16.7788
    16.8607  16.9746  17.0146  17.1566  17.1854  17.2000  17.2340  17.2540
    17.2813  17.3006  17.3437  17.3493  17.4293  17.4313  17.4743  17.5291
    17.5481  17.5685  17.6404  17.6852  17.6879  17.7406  17.7547  17.8032
    17.8439  17.8598  17.8796  17.9584  17.9963  18.0173  18.0369  18.0781
    18.0904  18.1322  18.1501

          k =-0.5000 0.5000 0.0000 ( 31480 PWs)   bands (ev):

   -42.0587 -41.7891 -41.7682 -41.7563 -41.7415 -41.7370 -41.7230 -41.7216
   -41.7124 -41.7082 -41.7036 -41.6893 -41.6833 -41.6733 -41.6613 -41.6507
   -41.6496 -41.6361 -41.6267 -41.6199 -41.6169 -41.6109 -41.5997 -41.5823
   -18.4483 -18.4171 -18.4029 -18.3768 -18.3339 -18.3293 -18.3128 -18.2991
   -18.2920 -18.2801 -18.2672 -18.2611 -18.2535 -18.2491 -18.2381 -18.2229
   -18.2076 -18.2051 -18.2005 -18.1854 -18.1751 -18.1560 -18.1377 -18.1257
   -18.1216 -18.1142 -18.0926 -18.0822 -18.0730 -18.0491 -18.0299 -18.0228
   -18.0105 -18.0076 -18.0033 -17.9991 -17.9884 -17.9838 -17.9807 -17.9686
   -17.9616 -17.9593 -17.9478 -17.9325 -17.9258 -17.9184 -17.9115 -17.9069
   -17.9052 -17.8990 -17.8934 -17.8852 -17.8809 -17.8762 -17.8729 -17.8668
   -17.8564 -17.8502 -17.8427 -17.8411 -17.8359 -17.8314 -17.8188 -17.8176
   -17.8079 -17.8045 -17.8011 -17.7971 -17.7935 -17.7881 -17.7718 -17.7635
    -1.1330  -0.9205  -0.7450  -0.5424  -0.0127  -0.0072   0.1459   0.2114
     0.2472   0.3516   0.3589   0.3789   0.4268   0.4721   0.4914   0.5241
     0.5275   0.5849   0.6543   0.7674   0.8318   0.8622   0.8866   0.9676
     0.9948   1.1058   1.1502   1.1647   1.2051   1.2554   1.3217   1.3678
     7.6613   7.7906   7.9549   8.0128   8.2665   8.2957   8.5089   8.6673
     8.7227   8.7418   8.8301   8.8793   8.9407   8.9914   9.0317   9.1330
     9.1771   9.2762   9.3001   9.3330   9.4547   9.4615   9.5566   9.6274
     9.7323   9.7795   9.8208   9.8810   9.9992  10.0624  10.0767  10.2676
    10.2991  10.3281  10.3898  10.5027  10.5285  10.5590  10.6017  10.6833
    10.7314  10.7494  10.7649  10.7985  10.8551  10.9020  10.9651  11.0114
    11.0202  11.0441  11.1340  11.1743  11.1933  11.2546  11.2721  11.3094
    11.3561  11.3590  11.3919  11.3954  11.4579  11.5338  11.5364  11.5860
    11.6047  11.6180  11.6443  11.6791  11.7289  11.7478  11.7789  11.7945
    11.8445  11.8611  11.9177  11.9291  11.9803  12.0097  12.0474  12.0626
    12.1199  12.1777  12.2548  12.3428  12.4881  12.5548  12.5761  12.6155
    12.7105  12.7416  12.7896  12.8367  12.8662  12.9043  13.0628  13.1733
    14.8197  14.9099  14.9677  15.0945  15.2146  15.4056  15.4250  15.5570
    15.5994  15.8120  15.8263  15.8679  15.9266  15.9825  16.0885  16.1149
    16.2031  16.2945  16.3788  16.4686  16.4903  16.5450  16.7833  16.7913
    17.0333  17.0860  17.0979  17.1466  17.1683  17.2110  17.2214  17.2395
    17.2438  17.2750  17.3165  17.3516  17.4337  17.4478  17.4863  17.5189
    17.5252  17.5725  17.5785  17.6894  17.7065  17.7371  17.7388  17.7648
    17.7855  17.8256  17.8560  17.8821  17.9450  17.9579  18.0344  18.0601
    18.0955  18.1346  18.1516

     the Fermi energy is    15.8908 ev

!    total energy              =   -5634.99506588 Ry
     total all-electron energy =    -48379.848690 Ry
     estimated scf accuracy    <          5.3E-09 Ry
     smearing contrib. (-TS)   =      -0.00226020 Ry
     internal energy E=F+TS    =   -5634.99280568 Ry

     The total energy is F=E-TS. E is the sum of the following terms:
     one-electron contribution =    -918.79750747 Ry
     hartree contribution      =     757.61932616 Ry
     xc contribution           =    -655.39266063 Ry
     ewald contribution        =   -2718.02954741 Ry
     one-center paw contrib.   =   -2100.39241633 Ry

     convergence has been achieved in  20 iterations
 
     init_run     :      3.46s CPU      3.61s WALL (       1 calls)
     electrons    :    190.05s CPU    193.75s WALL (       1 calls)

     Called by init_run:
     wfcinit      :      3.01s CPU      3.12s WALL (       1 calls)
     potinit      :      0.21s CPU      0.22s WALL (       1 calls)
     hinit0       :      0.12s CPU      0.13s WALL (       1 calls)

     Called by electrons:
     c_bands      :    167.65s CPU    170.42s WALL (      20 calls)
     sum_band     :     16.29s CPU     16.81s WALL (      20 calls)
     v_of_rho     :      0.76s CPU      0.77s WALL (      21 calls)
     newd         :      1.24s CPU      1.51s WALL (      21 calls)
     PAW_pot      :      3.32s CPU      3.38s WALL (      21 calls)
     mix_rho      :      0.98s CPU      1.05s WALL (      20 calls)

     Called by c_bands:
     init_us_2    :      1.67s CPU      1.70s WALL (      82 calls)
     init_us_2:cp :      1.67s CPU      1.70s WALL (      82 calls)
     cegterg      :    148.21s CPU    150.86s WALL (      40 calls)

     Called by *egterg:
     cdiaghg      :     21.29s CPU     21.69s WALL (     240 calls)
     h_psi        :     66.90s CPU     67.89s WALL (     242 calls)
     s_psi        :     17.28s CPU     17.41s WALL (     242 calls)
     g_psi        :      0.33s CPU      0.33s WALL (     200 calls)

     Called by h_psi:
     h_psi:calbec :     16.76s CPU     16.89s WALL (     242 calls)
     vloc_psi     :     32.07s CPU     32.57s WALL (     242 calls)
     add_vuspsi   :     17.41s CPU     17.58s WALL (     242 calls)

     General routines
     calbec       :     23.08s CPU     23.25s WALL (     282 calls)
     fft          :      0.34s CPU      0.35s WALL (     231 calls)
     ffts         :      0.50s CPU      0.51s WALL (     415 calls)
     fftw         :     32.83s CPU     33.34s WALL (   69358 calls)
 
     Parallel routines
 
     PWSCF        :   3m13.75s CPU   3m17.71s WALL

 
   This run was terminated on:  12:16:21  14May2026            

=------------------------------------------------------------------------------=
   JOB DONE.
=------------------------------------------------------------------------------=
