
     Program PWSCF v.7.1 starts on 14May2026 at 12: 9: 4 

     This program is part of the open-source Quantum ESPRESSO suite
     for quantum simulation of materials; please cite
         "P. Giannozzi et al., J. Phys.:Condens. Matter 21 395502 (2009);
         "P. Giannozzi et al., J. Phys.:Condens. Matter 29 465901 (2017);
         "P. Giannozzi et al., J. Chem. Phys. 152 154105 (2020);
          URL http://www.quantum-espresso.org", 
     in publications or presentations arising from this work. More details at
     http://www.quantum-espresso.org/quote

     Parallel version (MPI & OpenMP), running on      32 processor cores
     Number of MPI processes:                32
     Threads/MPI process:                     1

     MPI processes distributed on     1 nodes
     91271 MiB available memory on the printing compute node when the environment starts
 
     Reading input from TiAlN_x0125optimalvolume845403.in

     Current dimensions of program PWSCF are:
     Max number of different atomic species (ntypx) = 10
     Max number of k-points (npk) = 150000
     Max angular momentum in pseudopotentials (lmaxx) =  4
     file Al.pbe-n-kjpaw_psl.1.0.0.UPF: wavefunction(s)  3S 3P renormalized
     file N.pbe-n-kjpaw_psl.1.0.0.UPF: wavefunction(s)  2S renormalized
     file Ti.pbe-spn-kjpaw_psl.1.0.0.UPF: wavefunction(s)  3S 3P 3D renormalized

     gamma-point specific algorithms are used
 
     K-points division:     npool     =       4
     R & G space division:  proc/nbgrp/npool/nimage =       8
     Subspace diagonalization in iterative solution of the eigenvalue problem:
     one sub-group per band group will be used
     scalapack distributed-memory algorithm (size of sub-group:  2*  2 procs)

     Message from routine divide_et_impera:
     suboptimal parallelization: some nodes have no k-points
 
     Parallelization info
     --------------------
     sticks:   dense  smooth     PW     G-vecs:    dense   smooth      PW
     Min         608     608    159                32012    32012    4304
     Max         610     610    162                32018    32018    4310
     Sum        4873    4873   1281               256119   256119   34457
 
     Using Slab Decomposition
 


     bravais-lattice index     =            0
     lattice parameter (alat)  =      15.9758  a.u.
     unit-cell volume          =    4077.4435 (a.u.)^3
     number of atoms/cell      =           64
     number of atomic types    =            3
     number of electrons       =       508.00
     number of Kohn-Sham states=          305
     kinetic-energy cutoff     =      60.0000  Ry
     charge density cutoff     =     240.0000  Ry
     scf convergence threshold =      1.0E-08
     mixing beta               =       0.2000
     number of iterations used =            8  local-TF  mixing
     Exchange-correlation= SLA  PW   PBX  PBC
                           (   1   4   3   4   0   0   0)

     celldm(1)=  15.975801  celldm(2)=   0.000000  celldm(3)=   0.000000
     celldm(4)=   0.000000  celldm(5)=   0.000000  celldm(6)=   0.000000

     crystal axes: (cart. coord. in units of alat)
               a(1) = (   1.000000   0.000000   0.000000 )  
               a(2) = (   0.000000   1.000000   0.000000 )  
               a(3) = (   0.000000   0.000000   1.000000 )  

     reciprocal axes: (cart. coord. in units 2 pi/alat)
               b(1) = (  1.000000  0.000000  0.000000 )  
               b(2) = (  0.000000  1.000000  0.000000 )  
               b(3) = (  0.000000  0.000000  1.000000 )  


     PseudoPot. # 1 for Al read from file:
     ../../../pseudo/Al.pbe-n-kjpaw_psl.1.0.0.UPF
     MD5 check sum: 502b6b27b9c6270cab5dd1084b96fa6d
     Pseudo is Projector augmented-wave + core cor, Zval =  3.0
     Generated using &quot;atomic&quot; code by A. Dal Corso  v.6.3
     Shape of augmentation charge: PSQ
     Using radial grid of 1135 points,  6 beta functions with: 
                l(1) =   0
                l(2) =   0
                l(3) =   1
                l(4) =   1
                l(5) =   2
                l(6) =   2
     Q(r) pseudized with 0 coefficients 


     PseudoPot. # 2 for N  read from file:
     ../../../pseudo/N.pbe-n-kjpaw_psl.1.0.0.UPF
     MD5 check sum: 14c48229446f9f2d411169a3abcbc3fa
     Pseudo is Projector augmented-wave + core cor, Zval =  5.0
     Generated using &quot;atomic&quot; code by A. Dal Corso  v.6.3
     Shape of augmentation charge: PSQ
     Using radial grid of 1085 points,  4 beta functions with: 
                l(1) =   0
                l(2) =   0
                l(3) =   1
                l(4) =   1
     Q(r) pseudized with 0 coefficients 


     PseudoPot. # 3 for Ti read from file:
     ../../../pseudo/Ti.pbe-spn-kjpaw_psl.1.0.0.UPF
     MD5 check sum: 01f69b0d8ba4438b2e03ac6ea4af1c0b
     Pseudo is Projector augmented-wave + core cor, Zval = 12.0
     Generated using &quot;atomic&quot; code by A. Dal Corso  v.6.2.2
     Shape of augmentation charge: PSQ
     Using radial grid of 1177 points,  6 beta functions with: 
                l(1) =   0
                l(2) =   0
                l(3) =   1
                l(4) =   1
                l(5) =   2
                l(6) =   2
     Q(r) pseudized with 0 coefficients 


     atomic species   valence    mass     pseudopotential
        Al             3.00    26.98200     Al( 1.00)
        N              5.00    14.00700     N ( 1.00)
        Ti            12.00    47.86700     Ti( 1.00)

     No symmetry found



   Cartesian axes

     site n.     atom                  positions (alat units)
         1           Ti  tau(   1) = (   0.0001854   0.0005161   0.0015355  )
         2           N   tau(   2) = (   0.2575833   0.0003195   0.0002934  )
         3           Ti  tau(   3) = (  -0.0019918   0.2489827   0.2476351  )
         4           N   tau(   4) = (   0.2551374   0.2495558   0.2572526  )
         5           Ti  tau(   5) = (   0.2447735  -0.0015671   0.2492180  )
         6           N   tau(   6) = (  -0.0003321   0.0009868   0.2484731  )
         7           Ti  tau(   7) = (   0.2470057   0.2509215   0.0003912  )
         8           N   tau(   8) = (   0.0010304   0.2488032  -0.0097035  )
         9           Ti  tau(   9) = (  -0.0014345  -0.0031543   0.4973429  )
        10           N   tau(  10) = (   0.2502768   0.0072529   0.4990218  )
        11           Al  tau(  11) = (   0.0033047   0.2505668   0.7443677  )
        12           N   tau(  12) = (   0.2434212   0.2496679   0.7406586  )
        13           Ti  tau(  13) = (   0.2500120  -0.0020898   0.7489720  )
        14           N   tau(  14) = (   0.0005109   0.0079157   0.7493115  )
        15           Al  tau(  15) = (   0.2494920   0.2502135   0.4989529  )
        16           N   tau(  16) = (   0.0076626   0.2497854   0.5046939  )
        17           Ti  tau(  17) = (   0.0008889   0.4985873   0.0023704  )
        18           N   tau(  18) = (   0.2498995   0.4988245  -0.0000147  )
        19           Ti  tau(  19) = (   0.0006401   0.7490104   0.2503260  )
        20           N   tau(  20) = (   0.2499476   0.7481419   0.2502658  )
        21           Ti  tau(  21) = (   0.2489771   0.5002507   0.2468381  )
        22           N   tau(  22) = (  -0.0003296   0.4980749   0.2495347  )
        23           Ti  tau(  23) = (   0.2486331   0.7472580  -0.0007995  )
        24           N   tau(  24) = (  -0.0001017   0.7493851  -0.0008626  )
        25           Ti  tau(  25) = (  -0.0010634   0.5022730   0.4966978  )
        26           N   tau(  26) = (   0.2490358   0.4926051   0.4989998  )
        27           Ti  tau(  27) = (   0.0004644   0.7487675   0.7478432  )
        28           N   tau(  28) = (   0.2483842   0.7485134   0.7477294  )
        29           Ti  tau(  29) = (   0.2528560   0.5008541   0.7513597  )
        30           N   tau(  30) = (   0.0001976   0.4915713   0.7482145  )
        31           Ti  tau(  31) = (   0.2509121   0.7497852   0.4994865  )
        32           N   tau(  32) = (   0.0005026   0.7484982   0.4997069  )
        33           Al  tau(  33) = (   0.4996638   0.0013744   0.0030171  )
        34           N   tau(  34) = (   0.7405673  -0.0009003   0.0002636  )
        35           Al  tau(  35) = (   0.4958288   0.2469323   0.2502879  )
        36           N   tau(  36) = (   0.7394057   0.2495075   0.2504628  )
        37           Ti  tau(  37) = (   0.7526861   0.0017452   0.2513953  )
        38           N   tau(  38) = (   0.4988003   0.0063424   0.2432296  )
        39           Ti  tau(  39) = (   0.7509623   0.2508234   0.0000645  )
        40           N   tau(  40) = (   0.4977728   0.2420351   0.0072468  )
        41           Ti  tau(  41) = (   0.5003570  -0.0032991   0.5005564  )
        42           N   tau(  42) = (   0.7476398   0.0001431   0.4990858  )
        43           Ti  tau(  43) = (   0.5018509   0.2513777   0.7487331  )
        44           N   tau(  44) = (   0.7583498   0.2496051   0.7473867  )
        45           Ti  tau(  45) = (   0.7483842   0.0021389   0.7467126  )
        46           N   tau(  46) = (   0.4992524   0.0014746   0.7577542  )
        47           Ti  tau(  47) = (   0.7474478   0.2481608   0.4990602  )
        48           N   tau(  48) = (   0.4907648   0.2485451   0.4929155  )
        49           Ti  tau(  49) = (   0.4984128   0.4990014  -0.0017370  )
        50           N   tau(  50) = (   0.7483802   0.4999025   0.0000770  )
        51           Ti  tau(  51) = (   0.4984195   0.7471496   0.2523955  )
        52           N   tau(  52) = (   0.7482338   0.7481110   0.2493793  )
        53           Ti  tau(  53) = (   0.7486268   0.4971321   0.2486545  )
        54           N   tau(  54) = (   0.4988657   0.4901929   0.2489933  )
        55           Ti  tau(  55) = (   0.7493459   0.7473230  -0.0004653  )
        56           N   tau(  56) = (   0.4991272   0.7569678   0.0010038  )
        57           Ti  tau(  57) = (   0.5002122   0.5021739   0.5008125  )
        58           N   tau(  58) = (   0.7490473   0.4992450   0.4989967  )
        59           Ti  tau(  59) = (   0.4984476   0.7468349   0.7456955  )
        60           N   tau(  60) = (   0.7496754   0.7482821   0.7487088  )
        61           Ti  tau(  61) = (   0.7451929   0.4964355   0.7495085  )
        62           N   tau(  62) = (   0.4992089   0.4979252   0.7492177  )
        63           Ti  tau(  63) = (   0.7471240   0.7502564   0.4992255  )
        64           N   tau(  64) = (   0.4985376   0.7490570   0.4983225  )

     number of k points=     1  Gaussian smearing, width (Ry)=  0.0050
                       cart. coord. in units 2pi/alat
        k(    1) = (   0.0000000   0.0000000   0.0000000), wk =   2.0000000

     Dense  grid:   128060 G-vectors     FFT dimensions: (  80,  80,  80)

     Estimated max dynamical RAM per process >     110.37 MB

     Estimated total dynamical RAM >       3.36 GB

     Check: negative core charge=   -0.000031

     Initial potential from superposition of free atoms

     starting charge     507.9492, renormalised to     508.0000
     Starting wfcs are  424 randomized atomic wfcs
     Checking if some PAW data can be deallocated... 

     total cpu time spent up to now is        1.5 secs

     Self-consistent Calculation

     iteration #  1     ecut=    60.00 Ry     beta= 0.20
     Davidson diagonalization with overlap
     ethr =  1.00E-02,  avg # of iterations =  2.0

     total cpu time spent up to now is        3.2 secs

     total energy              =   -6214.21797398 Ry
     estimated scf accuracy    <      21.48990562 Ry

     iteration #  2     ecut=    60.00 Ry     beta= 0.20
     Davidson diagonalization with overlap
     ethr =  4.23E-03,  avg # of iterations =  1.0

     total cpu time spent up to now is        4.6 secs

     total energy              =   -6209.15515421 Ry
     estimated scf accuracy    <      11.79055622 Ry

     iteration #  3     ecut=    60.00 Ry     beta= 0.20
     Davidson diagonalization with overlap
     ethr =  2.32E-03,  avg # of iterations =  4.0

     total cpu time spent up to now is        6.6 secs

     total energy              =   -6212.06084220 Ry
     estimated scf accuracy    <       1.06010663 Ry

     iteration #  4     ecut=    60.00 Ry     beta= 0.20
     Davidson diagonalization with overlap
     ethr =  2.09E-04,  avg # of iterations =  4.0

     total cpu time spent up to now is        8.3 secs

     total energy              =   -6212.16084624 Ry
     estimated scf accuracy    <       0.27553181 Ry

     iteration #  5     ecut=    60.00 Ry     beta= 0.20
     Davidson diagonalization with overlap
     ethr =  5.42E-05,  avg # of iterations =  5.0

     total cpu time spent up to now is       10.5 secs

     total energy              =   -6212.11519251 Ry
     estimated scf accuracy    <       0.46107637 Ry

     iteration #  6     ecut=    60.00 Ry     beta= 0.20
     Davidson diagonalization with overlap
     ethr =  5.42E-05,  avg # of iterations = 12.0

     total cpu time spent up to now is       12.9 secs

     total energy              =   -6212.17138786 Ry
     estimated scf accuracy    <       0.04786360 Ry

     iteration #  7     ecut=    60.00 Ry     beta= 0.20
     Davidson diagonalization with overlap
     ethr =  9.42E-06,  avg # of iterations = 22.0

     total cpu time spent up to now is       17.9 secs

     total energy              =   -6212.16545112 Ry
     estimated scf accuracy    <       0.08173285 Ry

     iteration #  8     ecut=    60.00 Ry     beta= 0.20
     Davidson diagonalization with overlap
     ethr =  9.42E-06,  avg # of iterations =  3.0

     total cpu time spent up to now is       19.7 secs

     total energy              =   -6212.17458420 Ry
     estimated scf accuracy    <       0.00900723 Ry

     iteration #  9     ecut=    60.00 Ry     beta= 0.20
     Davidson diagonalization with overlap
     c_bands:  3 eigenvalues not converged
     ethr =  1.77E-06,  avg # of iterations = 20.0

     total cpu time spent up to now is       22.6 secs

     total energy              =   -6212.17332921 Ry
     estimated scf accuracy    <       0.01065569 Ry

     iteration # 10     ecut=    60.00 Ry     beta= 0.20
     Davidson diagonalization with overlap
     ethr =  1.77E-06,  avg # of iterations =  2.0

     total cpu time spent up to now is       24.2 secs

     total energy              =   -6212.17242419 Ry
     estimated scf accuracy    <       0.00313544 Ry

     iteration # 11     ecut=    60.00 Ry     beta= 0.20
     Davidson diagonalization with overlap
     ethr =  6.17E-07,  avg # of iterations = 10.0

     total cpu time spent up to now is       26.9 secs

     total energy              =   -6212.17304566 Ry
     estimated scf accuracy    <       0.00312423 Ry

     iteration # 12     ecut=    60.00 Ry     beta= 0.20
     Davidson diagonalization with overlap
     ethr =  6.15E-07,  avg # of iterations =  2.0

     total cpu time spent up to now is       28.5 secs

     total energy              =   -6212.17327672 Ry
     estimated scf accuracy    <       0.00035066 Ry

     iteration # 13     ecut=    60.00 Ry     beta= 0.20
     Davidson diagonalization with overlap
     ethr =  6.90E-08,  avg # of iterations =  6.0

     total cpu time spent up to now is       30.8 secs

     total energy              =   -6212.17336733 Ry
     estimated scf accuracy    <       0.00009405 Ry

     iteration # 14     ecut=    60.00 Ry     beta= 0.20
     Davidson diagonalization with overlap
     ethr =  1.85E-08,  avg # of iterations =  3.0

     total cpu time spent up to now is       32.4 secs

     total energy              =   -6212.17336853 Ry
     estimated scf accuracy    <       0.00003102 Ry

     iteration # 15     ecut=    60.00 Ry     beta= 0.20
     Davidson diagonalization with overlap
     ethr =  6.11E-09,  avg # of iterations =  5.0

     total cpu time spent up to now is       34.7 secs

     total energy              =   -6212.17336164 Ry
     estimated scf accuracy    <       0.00010927 Ry

     iteration # 16     ecut=    60.00 Ry     beta= 0.20
     Davidson diagonalization with overlap
     ethr =  6.11E-09,  avg # of iterations =  5.0

     total cpu time spent up to now is       36.7 secs

     total energy              =   -6212.17336288 Ry
     estimated scf accuracy    <       0.00001714 Ry

     iteration # 17     ecut=    60.00 Ry     beta= 0.20
     Davidson diagonalization with overlap
     ethr =  3.37E-09,  avg # of iterations =  6.0

     total cpu time spent up to now is       39.0 secs

     total energy              =   -6212.17336673 Ry
     estimated scf accuracy    <       0.00001303 Ry

     iteration # 18     ecut=    60.00 Ry     beta= 0.20
     Davidson diagonalization with overlap
     ethr =  2.56E-09,  avg # of iterations =  2.0

     total cpu time spent up to now is       40.6 secs

     total energy              =   -6212.17336754 Ry
     estimated scf accuracy    <       0.00000142 Ry

     iteration # 19     ecut=    60.00 Ry     beta= 0.20
     Davidson diagonalization with overlap
     ethr =  2.79E-10,  avg # of iterations =  6.0

     total cpu time spent up to now is       43.0 secs

     total energy              =   -6212.17336792 Ry
     estimated scf accuracy    <       0.00000037 Ry

     iteration # 20     ecut=    60.00 Ry     beta= 0.20
     Davidson diagonalization with overlap
     ethr =  7.37E-11,  avg # of iterations =  4.0

     total cpu time spent up to now is       44.8 secs

     total energy              =   -6212.17336796 Ry
     estimated scf accuracy    <       0.00000014 Ry

     iteration # 21     ecut=    60.00 Ry     beta= 0.20
     Davidson diagonalization with overlap
     ethr =  2.76E-11,  avg # of iterations =  7.0

     total cpu time spent up to now is       46.8 secs

     total energy              =   -6212.17336793 Ry
     estimated scf accuracy    <       0.00000017 Ry

     iteration # 22     ecut=    60.00 Ry     beta= 0.20
     Davidson diagonalization with overlap
     ethr =  2.76E-11,  avg # of iterations =  2.0

     total cpu time spent up to now is       48.4 secs

     total energy              =   -6212.17336790 Ry
     estimated scf accuracy    <       0.00000005 Ry

     iteration # 23     ecut=    60.00 Ry     beta= 0.20
     Davidson diagonalization with overlap
     ethr =  1.07E-11,  avg # of iterations =  6.0

     total cpu time spent up to now is       50.6 secs

     total energy              =   -6212.17336791 Ry
     estimated scf accuracy    <       0.00000003 Ry

     iteration # 24     ecut=    60.00 Ry     beta= 0.20
     Davidson diagonalization with overlap
     ethr =  6.79E-12,  avg # of iterations =  4.0

     total cpu time spent up to now is       52.5 secs

     End of self-consistent calculation

          k = 0.0000 0.0000 0.0000 ( 15960 PWs)   bands (ev):

   -41.4037 -41.3758 -41.3677 -41.3561 -41.3553 -41.3405 -41.3335 -41.3265
   -41.3151 -41.3047 -41.2996 -41.2952 -41.2841 -41.2766 -41.2709 -41.2616
   -41.2423 -41.2380 -41.2302 -41.2271 -41.2099 -41.1868 -41.1753 -41.1714
   -41.1480 -41.1444 -41.1039 -41.0995 -18.0072 -17.9864 -17.9753 -17.9548
   -17.8848 -17.8673 -17.8579 -17.8478 -17.8346 -17.8328 -17.8283 -17.8149
   -17.8118 -17.8065 -17.8008 -17.7774 -17.7674 -17.7539 -17.7395 -17.7380
   -17.7355 -17.7165 -17.7131 -17.7127 -17.7045 -17.6942 -17.6797 -17.6695
   -17.6664 -17.6636 -17.6550 -17.6506 -17.6441 -17.6356 -17.6349 -17.6298
   -17.6220 -17.6139 -17.6077 -17.6007 -17.5931 -17.5892 -17.5814 -17.5714
   -17.5580 -17.5548 -17.5497 -17.5416 -17.5343 -17.5195 -17.5124 -17.5098
   -17.5018 -17.4938 -17.4871 -17.4847 -17.4629 -17.4570 -17.4527 -17.4470
   -17.4415 -17.4356 -17.4329 -17.4268 -17.4220 -17.4187 -17.4143 -17.4081
   -17.4049 -17.3996 -17.3934 -17.3900 -17.3876 -17.3785 -17.3679 -17.3611
   -17.3536 -17.3501 -17.3440 -17.3291 -17.3253 -17.3201 -17.2640 -17.2412
    -0.8214   0.1617   0.2659   0.3689   0.4197   0.4464   0.4965   0.8089
     0.8738   0.9065   1.1392   1.1654   1.1759   1.1995   1.2232   1.2470
     1.2625   1.2766   1.2850   1.2920   1.3550   1.4261   1.5142   1.5676
     1.6110   1.6503   1.7436   1.7758   1.7779   1.8103   1.8186   1.8253
     7.8633   8.1293   8.1772   8.5900   8.8633   9.2309   9.2686   9.3925
     9.6309   9.6469   9.6552   9.6735   9.6938   9.7399   9.7489   9.7576
     9.9716  10.0596  10.1190  10.2620  10.2971  10.3376  10.4020  10.4443
    10.4614  10.5290  10.6004  10.6456  10.6740  10.7533  10.8872  10.9290
    10.9336  10.9517  10.9986  11.0130  11.0413  11.0520  11.0810  11.0868
    11.1021  11.1128  11.1333  11.1489  11.1541  11.1779  11.2096  11.2160
    11.2362  11.2710  11.2958  11.3007  11.3221  11.3597  11.4097  11.4225
    11.4449  11.5005  11.5303  11.5851  11.6273  11.6511  11.6719  11.7298
    11.7758  11.8396  11.8547  11.9889  12.0648  12.2354  12.2647  12.2945
    12.3699  12.3951  12.4580  12.9964  13.0632  13.1416  13.2042  13.2631
    13.2779  13.2998  13.3416  13.3539  13.3670  13.3948  13.4091  13.4564
    13.4700  13.4912  13.5034  13.5107  13.5486  13.6467  13.6949  13.7092
    14.6058  14.6119  14.6195  14.6315  14.6410  14.7567  14.7793  14.9125
    15.0119  16.0734  16.0929  16.2588  17.2559  17.3113  17.3341  17.3410
    17.3502  17.3780  17.3977  17.4143  17.4250  17.4446  17.4503  17.4601
    17.4898  17.5010  17.5110  17.5330  17.5553  17.6509  17.6595  17.6715
    17.7019  17.7156  17.7248  17.7390  17.7770  17.7967  17.8241  17.8873
    17.8939  17.9838  18.0047  18.0707  18.0903  18.1060  18.1152  18.1237
    18.1433  18.1494  18.1614  18.1999  18.2152  18.2212  18.2353  18.2402
    18.2546  18.2565  18.2619  18.2746  18.2875  18.2940  18.3075  18.3160
    18.3244

     the Fermi energy is    17.3028 ev

!    total energy              =   -6212.17336791 Ry
     total all-electron energy =    -53268.147511 Ry
     estimated scf accuracy    <          3.3E-09 Ry
     smearing contrib. (-TS)   =      -0.01222119 Ry
     internal energy E=F+TS    =   -6212.16114672 Ry

     The total energy is F=E-TS. E is the sum of the following terms:
     one-electron contribution =    -858.39946977 Ry
     hartree contribution      =     747.43496214 Ry
     xc contribution           =    -718.35607088 Ry
     ewald contribution        =   -3159.73794390 Ry
     one-center paw contrib.   =   -2223.10262431 Ry

     convergence has been achieved in  24 iterations
 
     init_run     :      0.93s CPU      1.03s WALL (       1 calls)
     electrons    :     49.49s CPU     50.99s WALL (       1 calls)

     Called by init_run:
     wfcinit      :      0.56s CPU      0.59s WALL (       1 calls)
     potinit      :      0.20s CPU      0.23s WALL (       1 calls)
     hinit0       :      0.11s CPU      0.12s WALL (       1 calls)

     Called by electrons:
     c_bands      :     39.40s CPU     40.29s WALL (      24 calls)
     sum_band     :      4.20s CPU      4.46s WALL (      24 calls)
     v_of_rho     :      0.73s CPU      0.75s WALL (      25 calls)
     newd         :      0.78s CPU      0.98s WALL (      25 calls)
     PAW_pot      :      3.88s CPU      4.00s WALL (      25 calls)
     mix_rho      :      0.66s CPU      0.68s WALL (      24 calls)

     Called by c_bands:
     init_us_2    :      0.21s CPU      0.22s WALL (      49 calls)
     init_us_2:cp :      0.21s CPU      0.22s WALL (      49 calls)
     regterg      :     37.51s CPU     38.38s WALL (      25 calls)

     Called by *egterg:
     rdiaghg      :      8.01s CPU      8.14s WALL (     168 calls)
     h_psi        :     17.14s CPU     17.37s WALL (     169 calls)
     s_psi        :      3.10s CPU      3.12s WALL (     169 calls)
     g_psi        :      0.09s CPU      0.09s WALL (     143 calls)

     Called by h_psi:
     h_psi:calbec :      3.41s CPU      3.43s WALL (     169 calls)
     vloc_psi     :     10.52s CPU     10.69s WALL (     169 calls)
     add_vuspsi   :      3.11s CPU      3.14s WALL (     169 calls)

     General routines
     calbec       :      4.39s CPU      4.43s WALL (     193 calls)
     fft          :      0.32s CPU      0.33s WALL (     225 calls)
     ffts         :      0.43s CPU      0.44s WALL (     369 calls)
     fftw         :     10.81s CPU     10.99s WALL (   23644 calls)
 
     Parallel routines
 
     PWSCF        :     50.66s CPU     52.81s WALL

 
   This run was terminated on:  12: 9:56  14May2026            

=------------------------------------------------------------------------------=
   JOB DONE.
=------------------------------------------------------------------------------=
