
     Program PWSCF v.7.1 starts on 14May2026 at 12:17: 3 

     This program is part of the open-source Quantum ESPRESSO suite
     for quantum simulation of materials; please cite
         "P. Giannozzi et al., J. Phys.:Condens. Matter 21 395502 (2009);
         "P. Giannozzi et al., J. Phys.:Condens. Matter 29 465901 (2017);
         "P. Giannozzi et al., J. Chem. Phys. 152 154105 (2020);
          URL http://www.quantum-espresso.org", 
     in publications or presentations arising from this work. More details at
     http://www.quantum-espresso.org/quote

     Parallel version (MPI & OpenMP), running on      32 processor cores
     Number of MPI processes:                32
     Threads/MPI process:                     1

     MPI processes distributed on     1 nodes
     91277 MiB available memory on the printing compute node when the environment starts
 
     Reading input from TiAlN_x0375optimalvolume837717.in

     Current dimensions of program PWSCF are:
     Max number of different atomic species (ntypx) = 10
     Max number of k-points (npk) = 150000
     Max angular momentum in pseudopotentials (lmaxx) =  4
     file Al.pbe-n-kjpaw_psl.1.0.0.UPF: wavefunction(s)  3S 3P renormalized
     file N.pbe-n-kjpaw_psl.1.0.0.UPF: wavefunction(s)  2S renormalized
     file Ti.pbe-spn-kjpaw_psl.1.0.0.UPF: wavefunction(s)  3S 3P 3D renormalized
 
     K-points division:     npool     =       4
     R & G space division:  proc/nbgrp/npool/nimage =       8
     Subspace diagonalization in iterative solution of the eigenvalue problem:
     one sub-group per band group will be used
     scalapack distributed-memory algorithm (size of sub-group:  2*  2 procs)

 
     Parallelization info
     --------------------
     sticks:   dense  smooth     PW     G-vecs:    dense   smooth      PW
     Min         598     598    163                31104    31104    4437
     Max         599     599    164                31107    31107    4442
     Sum        4785    4785   1305               248847   248847   35513
 
     Using Slab Decomposition
 


     bravais-lattice index     =            0
     lattice parameter (alat)  =      15.8306  a.u.
     unit-cell volume          =    3967.2410 (a.u.)^3
     number of atoms/cell      =           64
     number of atomic types    =            3
     number of electrons       =       436.00
     number of Kohn-Sham states=          262
     kinetic-energy cutoff     =      60.0000  Ry
     charge density cutoff     =     240.0000  Ry
     scf convergence threshold =      1.0E-08
     mixing beta               =       0.2000
     number of iterations used =            8  local-TF  mixing
     Exchange-correlation= SLA  PW   PBX  PBC
                           (   1   4   3   4   0   0   0)

     celldm(1)=  15.830557  celldm(2)=   0.000000  celldm(3)=   0.000000
     celldm(4)=   0.000000  celldm(5)=   0.000000  celldm(6)=   0.000000

     crystal axes: (cart. coord. in units of alat)
               a(1) = (   1.000000   0.000000   0.000000 )  
               a(2) = (   0.000000   1.000000   0.000000 )  
               a(3) = (   0.000000   0.000000   1.000000 )  

     reciprocal axes: (cart. coord. in units 2 pi/alat)
               b(1) = (  1.000000  0.000000  0.000000 )  
               b(2) = (  0.000000  1.000000  0.000000 )  
               b(3) = (  0.000000  0.000000  1.000000 )  


     PseudoPot. # 1 for Al read from file:
     ../../../pseudo/Al.pbe-n-kjpaw_psl.1.0.0.UPF
     MD5 check sum: 502b6b27b9c6270cab5dd1084b96fa6d
     Pseudo is Projector augmented-wave + core cor, Zval =  3.0
     Generated using &quot;atomic&quot; code by A. Dal Corso  v.6.3
     Shape of augmentation charge: PSQ
     Using radial grid of 1135 points,  6 beta functions with: 
                l(1) =   0
                l(2) =   0
                l(3) =   1
                l(4) =   1
                l(5) =   2
                l(6) =   2
     Q(r) pseudized with 0 coefficients 


     PseudoPot. # 2 for N  read from file:
     ../../../pseudo/N.pbe-n-kjpaw_psl.1.0.0.UPF
     MD5 check sum: 14c48229446f9f2d411169a3abcbc3fa
     Pseudo is Projector augmented-wave + core cor, Zval =  5.0
     Generated using &quot;atomic&quot; code by A. Dal Corso  v.6.3
     Shape of augmentation charge: PSQ
     Using radial grid of 1085 points,  4 beta functions with: 
                l(1) =   0
                l(2) =   0
                l(3) =   1
                l(4) =   1
     Q(r) pseudized with 0 coefficients 


     PseudoPot. # 3 for Ti read from file:
     ../../../pseudo/Ti.pbe-spn-kjpaw_psl.1.0.0.UPF
     MD5 check sum: 01f69b0d8ba4438b2e03ac6ea4af1c0b
     Pseudo is Projector augmented-wave + core cor, Zval = 12.0
     Generated using &quot;atomic&quot; code by A. Dal Corso  v.6.2.2
     Shape of augmentation charge: PSQ
     Using radial grid of 1177 points,  6 beta functions with: 
                l(1) =   0
                l(2) =   0
                l(3) =   1
                l(4) =   1
                l(5) =   2
                l(6) =   2
     Q(r) pseudized with 0 coefficients 


     atomic species   valence    mass     pseudopotential
        Al             3.00    26.98200     Al( 1.00)
        N              5.00    14.00700     N ( 1.00)
        Ti            12.00    47.86700     Ti( 1.00)

     No symmetry found



   Cartesian axes

     site n.     atom                  positions (alat units)
         1           Al  tau(   1) = (  -0.0014519  -0.0020968  -0.0042468  )
         2           N   tau(   2) = (   0.2379300  -0.0022141  -0.0088888  )
         3           Ti  tau(   3) = (   0.0023084   0.2437212   0.2547136  )
         4           N   tau(   4) = (   0.2486649   0.2489296   0.2498509  )
         5           Ti  tau(   5) = (   0.2480028   0.0019772   0.2499497  )
         6           N   tau(   6) = (  -0.0110652  -0.0013985   0.2367288  )
         7           Ti  tau(   7) = (   0.2528419   0.2526187   0.0018269  )
         8           N   tau(   8) = (  -0.0017433   0.2516541  -0.0013995  )
         9           Ti  tau(   9) = (  -0.0007734   0.0042664   0.4915794  )
        10           N   tau(  10) = (   0.2478161  -0.0075468   0.5079144  )
        11           Ti  tau(  11) = (   0.0038945   0.2494414   0.7424648  )
        12           N   tau(  12) = (   0.2479097   0.2364320   0.7471893  )
        13           Al  tau(  13) = (   0.2436373  -0.0039282   0.7473930  )
        14           N   tau(  14) = (  -0.0045898  -0.0064129   0.7532929  )
        15           Ti  tau(  15) = (   0.2498504   0.2500389   0.4972988  )
        16           N   tau(  16) = (   0.0011904   0.2623142   0.4994058  )
        17           Al  tau(  17) = (  -0.0050338   0.5003000  -0.0001150  )
        18           N   tau(  18) = (   0.2346258   0.4995442  -0.0004707  )
        19           Ti  tau(  19) = (   0.0080377   0.7540256   0.2527413  )
        20           N   tau(  20) = (   0.2587430   0.7485197   0.2568776  )
        21           Ti  tau(  21) = (   0.2509358   0.4958900   0.2456573  )
        22           N   tau(  22) = (  -0.0091839   0.5008924   0.2476720  )
        23           Ti  tau(  23) = (   0.2544289   0.7436949   0.0011590  )
        24           N   tau(  24) = (  -0.0050716   0.7458553  -0.0040633  )
        25           Al  tau(  25) = (  -0.0012435   0.5031416   0.4994262  )
        26           N   tau(  26) = (   0.2401601   0.5058293   0.4996840  )
        27           Al  tau(  27) = (   0.0003722   0.7472132   0.7493116  )
        28           N   tau(  28) = (   0.2421803   0.7548754   0.7424533  )
        29           Ti  tau(  29) = (   0.2572361   0.4968985   0.7513230  )
        30           N   tau(  30) = (  -0.0073014   0.5047901   0.7491340  )
        31           Al  tau(  31) = (   0.2490379   0.7472070   0.5005366  )
        32           N   tau(  32) = (   0.0054333   0.7417063   0.5041498  )
        33           Ti  tau(  33) = (   0.4913105   0.0040988   0.0006140  )
        34           N   tau(  34) = (   0.7543315  -0.0057307  -0.0013481  )
        35           Ti  tau(  35) = (   0.4953158   0.2500055   0.2514678  )
        36           N   tau(  36) = (   0.7467555   0.2481178   0.2476812  )
        37           Al  tau(  37) = (   0.7469381  -0.0039766   0.2413979  )
        38           N   tau(  38) = (   0.5093116  -0.0075215   0.2480582  )
        39           Ti  tau(  39) = (   0.7429190   0.2498844   0.0001631  )
        40           N   tau(  40) = (   0.4993281   0.2487969   0.0012526  )
        41           Ti  tau(  41) = (   0.4989098   0.0062229   0.4981802  )
        42           N   tau(  42) = (   0.7490719  -0.0018071   0.5000639  )
        43           Ti  tau(  43) = (   0.4945417   0.2535583   0.7453840  )
        44           N   tau(  44) = (   0.7487150   0.2457587   0.7488649  )
        45           Al  tau(  45) = (   0.7499847  -0.0038659   0.7535516  )
        46           N   tau(  46) = (   0.5032416  -0.0031850   0.7493985  )
        47           Ti  tau(  47) = (   0.7475137   0.2440990   0.4980841  )
        48           N   tau(  48) = (   0.4979836   0.2498697   0.4975802  )
        49           Ti  tau(  49) = (   0.4914841   0.4946816  -0.0029576  )
        50           N   tau(  50) = (   0.7544795   0.5039010  -0.0005504  )
        51           Al  tau(  51) = (   0.5012633   0.7465300   0.2502727  )
        52           N   tau(  52) = (   0.7439209   0.7492843   0.2458833  )
        53           Al  tau(  53) = (   0.7502707   0.5026983   0.2484338  )
        54           N   tau(  54) = (   0.5103375   0.5060183   0.2491676  )
        55           Al  tau(  55) = (   0.7499035   0.7468754   0.0003813  )
        56           N   tau(  56) = (   0.5074003   0.7479420   0.0071191  )
        57           Ti  tau(  57) = (   0.4969628   0.4916068   0.5016608  )
        58           N   tau(  58) = (   0.7557829   0.5013447   0.4989055  )
        59           Ti  tau(  59) = (   0.4925997   0.7420149   0.7489964  )
        60           N   tau(  60) = (   0.7533439   0.7498091   0.7521114  )
        61           Al  tau(  61) = (   0.7540519   0.5027757   0.7483808  )
        62           N   tau(  62) = (   0.5158059   0.5008827   0.7476670  )
        63           Ti  tau(  63) = (   0.7456348   0.7541517   0.4995920  )
        64           N   tau(  64) = (   0.4921288   0.7463008   0.4933146  )

     number of k points=     8  Gaussian smearing, width (Ry)=  0.0050
                       cart. coord. in units 2pi/alat
        k(    1) = (   0.0000000   0.0000000   0.0000000), wk =   0.2500000
        k(    2) = (   0.0000000   0.0000000  -0.5000000), wk =   0.2500000
        k(    3) = (   0.0000000  -0.5000000  -0.5000000), wk =   0.2500000
        k(    4) = (  -0.5000000  -0.5000000  -0.5000000), wk =   0.2500000
        k(    5) = (  -0.5000000   0.0000000   0.0000000), wk =   0.2500000
        k(    6) = (   0.0000000  -0.5000000   0.0000000), wk =   0.2500000
        k(    7) = (  -0.5000000   0.0000000   0.5000000), wk =   0.2500000
        k(    8) = (  -0.5000000   0.5000000   0.0000000), wk =   0.2500000

     Dense  grid:   248847 G-vectors     FFT dimensions: (  80,  80,  80)

     Estimated max dynamical RAM per process >     218.87 MB

     Estimated total dynamical RAM >       6.66 GB

     Check: negative core charge=   -0.000025

     Initial potential from superposition of free atoms

     starting charge     435.9427, renormalised to     436.0000
     Starting wfcs are  376 randomized atomic wfcs
     Checking if some PAW data can be deallocated... 

     total cpu time spent up to now is        3.7 secs

     Self-consistent Calculation

     iteration #  1     ecut=    60.00 Ry     beta= 0.20
     Davidson diagonalization with overlap
     ethr =  1.00E-02,  avg # of iterations =  2.0

     total cpu time spent up to now is       10.8 secs

     total energy              =   -5059.82412846 Ry
     estimated scf accuracy    <      19.67917397 Ry

     iteration #  2     ecut=    60.00 Ry     beta= 0.20
     Davidson diagonalization with overlap
     ethr =  4.51E-03,  avg # of iterations =  1.0

     total cpu time spent up to now is       16.5 secs

     total energy              =   -5055.00770848 Ry
     estimated scf accuracy    <      11.20955248 Ry

     iteration #  3     ecut=    60.00 Ry     beta= 0.20
     Davidson diagonalization with overlap
     ethr =  2.57E-03,  avg # of iterations =  3.4

     total cpu time spent up to now is       24.6 secs

     total energy              =   -5057.72250750 Ry
     estimated scf accuracy    <       0.77664481 Ry

     iteration #  4     ecut=    60.00 Ry     beta= 0.20
     Davidson diagonalization with overlap
     ethr =  1.78E-04,  avg # of iterations =  4.6

     total cpu time spent up to now is       32.5 secs

     total energy              =   -5057.79278352 Ry
     estimated scf accuracy    <       0.35871258 Ry

     iteration #  5     ecut=    60.00 Ry     beta= 0.20
     Davidson diagonalization with overlap
     ethr =  8.23E-05,  avg # of iterations =  2.4

     total cpu time spent up to now is       39.3 secs

     total energy              =   -5057.77134797 Ry
     estimated scf accuracy    <       0.18954611 Ry

     iteration #  6     ecut=    60.00 Ry     beta= 0.20
     Davidson diagonalization with overlap
     ethr =  4.35E-05,  avg # of iterations =  2.0

     total cpu time spent up to now is       46.7 secs

     total energy              =   -5057.77759787 Ry
     estimated scf accuracy    <       0.07398453 Ry

     iteration #  7     ecut=    60.00 Ry     beta= 0.20
     Davidson diagonalization with overlap
     ethr =  1.70E-05,  avg # of iterations =  2.9

     total cpu time spent up to now is       53.5 secs

     total energy              =   -5057.77788523 Ry
     estimated scf accuracy    <       0.01666106 Ry

     iteration #  8     ecut=    60.00 Ry     beta= 0.20
     Davidson diagonalization with overlap
     ethr =  3.82E-06,  avg # of iterations = 18.2

     total cpu time spent up to now is       68.7 secs

     total energy              =   -5057.78213464 Ry
     estimated scf accuracy    <       0.00304643 Ry

     iteration #  9     ecut=    60.00 Ry     beta= 0.20
     Davidson diagonalization with overlap
     ethr =  6.99E-07,  avg # of iterations =  4.0

     total cpu time spent up to now is       76.0 secs

     total energy              =   -5057.78200685 Ry
     estimated scf accuracy    <       0.00132010 Ry

     iteration # 10     ecut=    60.00 Ry     beta= 0.20
     Davidson diagonalization with overlap
     ethr =  3.03E-07,  avg # of iterations =  2.5

     total cpu time spent up to now is       82.5 secs

     total energy              =   -5057.78199338 Ry
     estimated scf accuracy    <       0.00035798 Ry

     iteration # 11     ecut=    60.00 Ry     beta= 0.20
     Davidson diagonalization with overlap
     ethr =  8.21E-08,  avg # of iterations =  8.1

     total cpu time spent up to now is       93.7 secs

     total energy              =   -5057.78203243 Ry
     estimated scf accuracy    <       0.00032393 Ry

     iteration # 12     ecut=    60.00 Ry     beta= 0.20
     Davidson diagonalization with overlap
     ethr =  7.43E-08,  avg # of iterations =  2.0

     total cpu time spent up to now is      100.2 secs

     total energy              =   -5057.78204040 Ry
     estimated scf accuracy    <       0.00007166 Ry

     iteration # 13     ecut=    60.00 Ry     beta= 0.20
     Davidson diagonalization with overlap
     c_bands:  1 eigenvalues not converged
     ethr =  1.64E-08,  avg # of iterations =  6.8

     total cpu time spent up to now is      110.6 secs

     total energy              =   -5057.78204725 Ry
     estimated scf accuracy    <       0.00003418 Ry

     iteration # 14     ecut=    60.00 Ry     beta= 0.20
     Davidson diagonalization with overlap
     ethr =  7.84E-09,  avg # of iterations =  2.2

     total cpu time spent up to now is      117.9 secs

     total energy              =   -5057.78205152 Ry
     estimated scf accuracy    <       0.00000483 Ry

     iteration # 15     ecut=    60.00 Ry     beta= 0.20
     Davidson diagonalization with overlap
     ethr =  1.11E-09,  avg # of iterations =  5.1

     total cpu time spent up to now is      125.9 secs

     total energy              =   -5057.78205098 Ry
     estimated scf accuracy    <       0.00000268 Ry

     iteration # 16     ecut=    60.00 Ry     beta= 0.20
     Davidson diagonalization with overlap
     ethr =  6.15E-10,  avg # of iterations =  3.8

     total cpu time spent up to now is      133.3 secs

     total energy              =   -5057.78205136 Ry
     estimated scf accuracy    <       0.00000055 Ry

     iteration # 17     ecut=    60.00 Ry     beta= 0.20
     Davidson diagonalization with overlap
     ethr =  1.25E-10,  avg # of iterations =  5.9

     total cpu time spent up to now is      141.9 secs

     total energy              =   -5057.78205129 Ry
     estimated scf accuracy    <       0.00000058 Ry

     iteration # 18     ecut=    60.00 Ry     beta= 0.20
     Davidson diagonalization with overlap
     ethr =  1.25E-10,  avg # of iterations =  2.0

     total cpu time spent up to now is      148.8 secs

     total energy              =   -5057.78205132 Ry
     estimated scf accuracy    <       0.00000009 Ry

     iteration # 19     ecut=    60.00 Ry     beta= 0.20
     Davidson diagonalization with overlap
     ethr =  2.01E-11,  avg # of iterations =  4.9

     total cpu time spent up to now is      156.9 secs

     total energy              =   -5057.78205132 Ry
     estimated scf accuracy    <       0.00000004 Ry

     iteration # 20     ecut=    60.00 Ry     beta= 0.20
     Davidson diagonalization with overlap
     ethr =  9.66E-12,  avg # of iterations =  2.0

     total cpu time spent up to now is      163.9 secs

     total energy              =   -5057.78205132 Ry
     estimated scf accuracy    <       0.00000001 Ry

     iteration # 21     ecut=    60.00 Ry     beta= 0.20
     Davidson diagonalization with overlap
     ethr =  2.30E-12,  avg # of iterations =  2.0

     total cpu time spent up to now is      170.3 secs

     End of self-consistent calculation

          k = 0.0000 0.0000 0.0000 ( 31103 PWs)   bands (ev):

   -42.6152 -42.5448 -42.3838 -42.3636 -42.3333 -42.2817 -42.2415 -42.2308
   -42.1994 -42.1838 -42.1663 -42.1446 -42.1357 -42.1087 -42.0949 -42.0766
   -42.0636 -42.0377 -41.9843 -41.9633 -19.0238 -18.9798 -18.9696 -18.9548
   -18.9218 -18.9015 -18.8597 -18.8379 -18.7958 -18.7828 -18.7757 -18.7612
   -18.7499 -18.7387 -18.7265 -18.7118 -18.7078 -18.6866 -18.6783 -18.6731
   -18.6653 -18.6614 -18.6480 -18.6352 -18.6314 -18.6151 -18.6020 -18.5885
   -18.5835 -18.5515 -18.5329 -18.5239 -18.5071 -18.4895 -18.4833 -18.4706
   -18.4596 -18.4414 -18.4338 -18.4178 -18.4059 -18.3996 -18.3880 -18.3567
   -18.3468 -18.3406 -18.3332 -18.3253 -18.3137 -18.3074 -18.2941 -18.2834
   -18.2637 -18.2586 -18.2481 -18.2354 -18.2098 -18.2010 -18.1601 -18.1573
    -2.4600  -1.3723  -1.2722  -1.1997  -1.0319  -0.9538  -0.8694  -0.3912
    -0.2924  -0.2747  -0.2503  -0.1884  -0.1680  -0.1136  -0.0709  -0.0206
    -0.0025   0.0686   0.1282   0.2223   0.2401   0.3024   0.3313   0.3525
     0.4176   0.4287   0.4942   0.5143   0.5761   0.6734   0.7521   0.8056
     5.9692   6.5530   6.8224   7.0645   7.5366   7.7817   7.8349   7.9075
     8.0287   8.0500   8.1029   8.2306   8.2621   8.2957   8.3188   8.3969
     8.5278   8.5743   8.6730   8.7564   8.7847   8.8340   8.9737   9.0638
     9.0689   9.1590   9.2533   9.2913   9.3212   9.3641   9.3990   9.4462
     9.5109   9.5862   9.7033   9.7608   9.8007   9.8147   9.8434   9.9236
     9.9677  10.0074  10.0454  10.0625  10.0831  10.1192  10.1456  10.1906
    10.2273  10.3428  10.4182  10.4972  10.5087  10.5273  10.5306  10.6185
    10.7381  10.7916  10.8863  10.9363  10.9836  11.0289  11.0925  11.1075
    11.2269  11.2737  11.3297  11.3437  11.3859  11.4037  11.5756  11.6126
    11.6697  11.6782  11.7494  11.8657  11.9560  12.0824  12.1210  12.1380
    12.1618  12.1852  12.2237  12.2533  12.3154  12.3321  12.3678  12.4029
    12.4577  12.4737  12.5728  12.5944  12.6937  12.9836  13.0608  13.2021
    13.5581  13.5974  13.6149  14.0727  14.2047  14.3045  14.4229  14.5960
    14.6977  15.4469  15.6299  15.7679  16.2920  16.4342  16.4639  16.5124
    16.5274  16.5520  16.5704  16.5857  16.6554  16.6931  16.7195  16.7336
    16.7480  16.7924  16.8566  16.8684  16.9506  16.9818  17.0178  17.0545
    17.0566  17.0718  17.1131  17.1285  17.1423  17.1729  17.1975  17.2266
    17.2387  17.2795  17.2919  17.3209  17.3471  17.3536  17.3692  17.3920
    17.4221  17.4341  17.4791  17.4863  17.5187  17.5234

          k = 0.0000 0.0000-0.5000 ( 31136 PWs)   bands (ev):

   -42.6152 -42.5448 -42.3838 -42.3636 -42.3331 -42.2818 -42.2417 -42.2306
   -42.1994 -42.1843 -42.1664 -42.1461 -42.1351 -42.1092 -42.0913 -42.0764
   -42.0654 -42.0378 -41.9843 -41.9633 -19.0173 -18.9702 -18.9558 -18.9291
   -18.9236 -18.9053 -18.8564 -18.8335 -18.8203 -18.8104 -18.7775 -18.7746
   -18.7595 -18.7428 -18.7370 -18.7234 -18.7053 -18.6956 -18.6860 -18.6831
   -18.6747 -18.6634 -18.6468 -18.6433 -18.6414 -18.6163 -18.5881 -18.5794
   -18.5590 -18.5437 -18.5318 -18.5155 -18.5037 -18.4859 -18.4725 -18.4640
   -18.4489 -18.4274 -18.4166 -18.4142 -18.3955 -18.3886 -18.3762 -18.3606
   -18.3526 -18.3426 -18.3400 -18.3323 -18.3193 -18.3118 -18.2945 -18.2903
   -18.2683 -18.2635 -18.2563 -18.2378 -18.2196 -18.1982 -18.1597 -18.1572
    -2.1404  -2.0160  -1.0239  -0.9188  -0.8625  -0.8323  -0.8048  -0.7309
    -0.6058  -0.4540  -0.3232  -0.3126  -0.1135  -0.0054   0.0213   0.0544
     0.0832   0.1351   0.1443   0.2037   0.2421   0.2776   0.3136   0.3467
     0.4454   0.4723   0.5025   0.5485   0.5782   0.6109   0.6708   0.7469
     6.4822   6.6446   7.0111   7.1818   7.3254   7.4634   7.5862   7.7181
     7.9143   8.0194   8.1106   8.1772   8.2625   8.3155   8.4557   8.5257
     8.5531   8.6002   8.6404   8.7153   8.7820   8.8444   8.8930   8.9595
     9.0253   9.0723   9.1231   9.1519   9.2433   9.2702   9.3014   9.3624
     9.4004   9.4552   9.7567   9.8341   9.9477  10.0462  10.0520  10.1368
    10.1779  10.2153  10.2555  10.2761  10.3140  10.3355  10.3977  10.4361
    10.4676  10.5052  10.5458  10.5768  10.6241  10.6747  10.7309  10.7780
    10.9091  10.9488  11.0209  11.0362  11.0720  11.0851  11.1558  11.1660
    11.1995  11.2474  11.2768  11.3210  11.3406  11.3679  11.3890  11.4357
    11.4553  11.5492  11.5793  11.6093  11.6260  11.6592  11.7225  11.7812
    11.8281  11.8679  11.9270  12.0194  12.0328  12.0502  12.1186  12.2088
    12.2553  12.2735  12.3373  12.4435  12.9321  12.9935  13.0106  13.0478
    13.3637  13.6118  14.5255  14.5798  14.6521  14.7871  14.9678  15.1573
    15.2438  15.3840  15.4116  15.5446  15.5615  15.7493  15.8775  16.1233
    16.2412  16.3615  16.4950  16.5173  16.5699  16.5945  16.6728  16.7093
    16.7686  16.8047  16.8268  16.8387  16.8711  16.9351  16.9471  16.9589
    17.0072  17.0160  17.0455  17.0682  17.0857  17.1295  17.1555  17.1819
    17.1970  17.2393  17.2757  17.3139  17.3360  17.3539  17.4259  17.4322
    17.4721  17.5104  17.5578  17.5961  17.6084  17.6601

          k = 0.0000-0.5000-0.5000 ( 31064 PWs)   bands (ev):

   -42.6152 -42.5448 -42.3838 -42.3636 -42.3330 -42.2815 -42.2426 -42.2307
   -42.1994 -42.1841 -42.1658 -42.1462 -42.1354 -42.1087 -42.0912 -42.0766
   -42.0655 -42.0380 -41.9843 -41.9633 -19.0172 -18.9698 -18.9530 -18.9256
   -18.9164 -18.9056 -18.8596 -18.8465 -18.8282 -18.7888 -18.7865 -18.7738
   -18.7564 -18.7487 -18.7275 -18.7212 -18.7060 -18.6987 -18.6901 -18.6815
   -18.6732 -18.6581 -18.6480 -18.6425 -18.6333 -18.6205 -18.6134 -18.5772
   -18.5659 -18.5553 -18.5236 -18.5104 -18.4988 -18.4797 -18.4784 -18.4620
   -18.4355 -18.4313 -18.4209 -18.4058 -18.3979 -18.3882 -18.3742 -18.3628
   -18.3554 -18.3459 -18.3446 -18.3328 -18.3252 -18.3091 -18.2927 -18.2876
   -18.2741 -18.2614 -18.2513 -18.2356 -18.2224 -18.1938 -18.1607 -18.1572
    -1.9262  -1.7895  -1.5375  -1.4300  -0.7740  -0.6497  -0.6218  -0.4848
    -0.4031  -0.3794  -0.3585  -0.2997  -0.2182  -0.1488  -0.1110  -0.0273
     0.0220   0.0670   0.0946   0.1796   0.2910   0.3470   0.3554   0.4198
     0.4304   0.4608   0.5190   0.5640   0.6088   0.6242   0.6422   0.6846
     6.7888   6.9141   7.0556   7.1745   7.2099   7.4792   7.5073   7.7757
     7.8040   8.0178   8.1011   8.1667   8.2144   8.3054   8.3229   8.3716
     8.5204   8.5536   8.6202   8.6265   8.6791   8.7080   8.8578   8.9126
     8.9657   9.0604   9.1403   9.2276   9.3175   9.3890   9.4907   9.5200
     9.7516   9.8102   9.8459   9.9379  10.0205  10.0462  10.1254  10.2008
    10.2300  10.2660  10.3083  10.3430  10.3892  10.4110  10.4386  10.4536
    10.5360  10.5778  10.6210  10.6527  10.7025  10.7361  10.7707  10.8358
    10.8866  10.8956  10.9094  10.9908  11.0161  11.0557  11.1010  11.1266
    11.1358  11.1754  11.2345  11.2473  11.2701  11.2962  11.3103  11.3191
    11.3509  11.4308  11.4352  11.4744  11.5287  11.5610  11.6069  11.6281
    11.6951  11.7320  11.8115  11.9349  11.9915  12.0181  12.1436  12.2366
    12.2630  12.3019  12.3398  12.3752  12.4164  12.4536  12.6434  12.9478
    14.4116  14.5604  14.6724  14.8249  14.8645  14.9326  15.1122  15.2320
    15.2955  15.3124  15.3509  15.5081  15.6590  15.7102  15.8629  15.8779
    15.9219  15.9888  16.0241  16.1103  16.1628  16.2304  16.2494  16.3736
    16.5022  16.5607  16.6353  16.7423  16.7697  16.8118  16.8246  16.8662
    16.9456  16.9724  16.9814  17.0067  17.0643  17.1197  17.1387  17.2549
    17.2884  17.3041  17.3793  17.4105  17.4344  17.5052  17.5602  17.6089
    17.6216  17.6637  17.6717  17.6850  17.6986  17.7391

          k =-0.5000-0.5000-0.5000 ( 31144 PWs)   bands (ev):

   -42.6152 -42.5448 -42.3838 -42.3635 -42.3330 -42.2815 -42.2426 -42.2296
   -42.2024 -42.1836 -42.1654 -42.1448 -42.1359 -42.1083 -42.0914 -42.0770
   -42.0654 -42.0380 -41.9844 -41.9633 -19.0211 -18.9779 -18.9548 -18.9279
   -18.9197 -18.9078 -18.8517 -18.8203 -18.8116 -18.7954 -18.7848 -18.7732
   -18.7605 -18.7338 -18.7281 -18.7105 -18.7059 -18.7023 -18.6909 -18.6815
   -18.6745 -18.6658 -18.6543 -18.6429 -18.6317 -18.6262 -18.6127 -18.5988
   -18.5794 -18.5664 -18.5371 -18.5106 -18.4886 -18.4749 -18.4707 -18.4602
   -18.4338 -18.4204 -18.4130 -18.4065 -18.3969 -18.3878 -18.3825 -18.3695
   -18.3632 -18.3505 -18.3417 -18.3355 -18.3247 -18.3114 -18.2880 -18.2784
   -18.2732 -18.2610 -18.2498 -18.2381 -18.2152 -18.1961 -18.1599 -18.1575
    -1.7810  -1.5392  -1.3668  -1.3357  -1.2224  -1.0709  -0.9472  -0.8804
    -0.2561  -0.1887  -0.1375  -0.0989  -0.0903  -0.0829  -0.0470  -0.0334
     0.0694   0.0795   0.1468   0.1993   0.2538   0.2907   0.3525   0.3809
     0.4072   0.4435   0.4716   0.5332   0.5552   0.5894   0.6530   0.7244
     6.9639   7.1059   7.1579   7.2754   7.3932   7.4472   7.6395   7.7397
     7.8030   7.9140   7.9518   8.1302   8.1566   8.1919   8.3133   8.4029
     8.4453   8.5527   8.6069   8.7275   8.8507   8.8632   8.8950   8.9727
     9.2085   9.2562   9.3630   9.4149   9.4628   9.5986   9.6137   9.6426
     9.7343   9.7714   9.8128   9.8512   9.9012   9.9156   9.9524   9.9904
    10.0257  10.0574  10.0806  10.1219  10.1559  10.2061  10.2487  10.2746
    10.3099  10.3647  10.3970  10.4434  10.5057  10.5424  10.5878  10.6698
    10.7879  10.8559  10.8677  10.9136  10.9299  10.9572  11.0049  11.0713
    11.0878  11.0983  11.1389  11.2202  11.2254  11.2670  11.3331  11.4152
    11.4391  11.4765  11.5249  11.6309  11.6553  11.7233  11.8005  11.8336
    11.8907  11.9445  11.9901  12.0379  12.1186  12.1703  12.2426  12.2528
    12.3069  12.3658  12.3995  12.4520  12.5012  12.5900  12.7555  12.8691
    14.7757  14.8275  14.8919  14.9539  14.9730  14.9852  15.1369  15.2626
    15.2791  15.3699  15.4329  15.4638  15.5375  15.5679  15.6951  15.7779
    15.7802  15.8224  15.9219  15.9421  15.9548  16.0112  16.1211  16.2440
    16.2541  16.2929  16.3679  16.4395  16.5137  16.5686  16.6684  16.6803
    16.7714  16.7936  16.8065  16.8621  16.8771  17.1399  17.1597  17.3805
    17.4350  17.5108  17.5583  17.6226  17.6476  17.6675  17.6915  17.7233
    17.7362  17.7508  17.7965  17.8085  17.8256  17.8271

          k =-0.5000 0.0000 0.0000 ( 31136 PWs)   bands (ev):

   -42.6152 -42.5448 -42.3838 -42.3636 -42.3332 -42.2817 -42.2415 -42.2298
   -42.2023 -42.1831 -42.1660 -42.1435 -42.1361 -42.1085 -42.0942 -42.0773
   -42.0638 -42.0377 -41.9843 -41.9633 -19.0173 -18.9668 -18.9557 -18.9405
   -18.9201 -18.8993 -18.8746 -18.8509 -18.8190 -18.7944 -18.7908 -18.7766
   -18.7513 -18.7379 -18.7313 -18.7081 -18.7008 -18.6881 -18.6747 -18.6724
   -18.6696 -18.6616 -18.6496 -18.6392 -18.6339 -18.6231 -18.5988 -18.5917
   -18.5755 -18.5393 -18.5297 -18.5217 -18.5080 -18.4838 -18.4725 -18.4565
   -18.4371 -18.4361 -18.4249 -18.4157 -18.4043 -18.3935 -18.3820 -18.3701
   -18.3666 -18.3380 -18.3289 -18.3244 -18.3201 -18.3056 -18.3012 -18.2849
   -18.2685 -18.2629 -18.2485 -18.2344 -18.2160 -18.2010 -18.1631 -18.1551
    -2.2108  -1.9114  -1.0678  -0.9402  -0.8640  -0.8464  -0.7732  -0.6615
    -0.5701  -0.4835  -0.4115  -0.2704  -0.1832  -0.0221   0.0307   0.0437
     0.0986   0.1221   0.1423   0.1594   0.1970   0.2655   0.2868   0.3701
     0.4155   0.4623   0.4752   0.5274   0.5923   0.7026   0.7551   0.8482
     6.3578   6.8436   7.0618   7.2403   7.4405   7.6312   7.7597   7.8630
     7.9643   8.0333   8.0627   8.1026   8.1916   8.2390   8.3050   8.4558
     8.5082   8.5543   8.6112   8.6725   8.7865   8.8048   8.8496   8.8724
     8.9488   8.9815   9.0191   9.1402   9.1799   9.2420   9.2764   9.3974
     9.3987   9.6343   9.7843   9.8365   9.9290   9.9922  10.0403  10.0502
    10.1000  10.1336  10.1605  10.1752  10.2284  10.2489  10.3036  10.3702
    10.4474  10.4707  10.4854  10.5203  10.5376  10.6618  10.7182  10.7899
    10.8372  10.8743  10.9159  11.0118  11.0728  11.1006  11.1405  11.1690
    11.2118  11.2293  11.2732  11.3067  11.3412  11.3993  11.4570  11.4861
    11.5405  11.5780  11.6117  11.6454  11.6855  11.7137  11.7953  11.8235
    11.9512  11.9800  12.0644  12.1982  12.2012  12.2220  12.2333  12.2521
    12.3013  12.3395  12.3746  12.6056  12.9449  12.9581  13.0574  13.0873
    13.1118  13.9403  14.2647  14.3590  14.7853  14.9452  15.0042  15.0434
    15.1256  15.2864  15.3423  15.6177  15.6308  15.9459  16.1371  16.2454
    16.3574  16.4422  16.4769  16.5269  16.6039  16.6652  16.6683  16.6806
    16.7327  16.7599  16.7839  16.8040  16.8165  16.8988  16.9113  16.9924
    17.0064  17.0268  17.0358  17.0873  17.0956  17.1323  17.1635  17.2000
    17.2225  17.2549  17.3100  17.3374  17.3599  17.3706  17.4204  17.4223
    17.4527  17.4624  17.5312  17.5875  17.6195  17.6633

          k = 0.0000-0.5000 0.0000 ( 31136 PWs)   bands (ev):

   -42.6152 -42.5448 -42.3838 -42.3635 -42.3331 -42.2817 -42.2429 -42.2301
   -42.1994 -42.1838 -42.1658 -42.1447 -42.1360 -42.1082 -42.0947 -42.0768
   -42.0637 -42.0378 -41.9843 -41.9633 -19.0215 -18.9735 -18.9665 -18.9412
   -18.9229 -18.9151 -18.8448 -18.8235 -18.7956 -18.7819 -18.7753 -18.7552
   -18.7546 -18.7431 -18.7360 -18.7289 -18.7129 -18.7105 -18.7013 -18.6954
   -18.6714 -18.6638 -18.6596 -18.6409 -18.6216 -18.6095 -18.5967 -18.5823
   -18.5637 -18.5325 -18.5248 -18.5152 -18.5070 -18.4910 -18.4772 -18.4681
   -18.4518 -18.4374 -18.4318 -18.4162 -18.4060 -18.4017 -18.3843 -18.3453
   -18.3444 -18.3438 -18.3340 -18.3230 -18.3177 -18.3101 -18.3074 -18.2809
   -18.2674 -18.2592 -18.2492 -18.2366 -18.2108 -18.2054 -18.1606 -18.1579
    -2.2154  -1.8619  -1.2279  -1.1117  -0.7938  -0.7342  -0.6592  -0.5980
    -0.5608  -0.4621  -0.3721  -0.3019  -0.2264  -0.0608   0.0326   0.0613
     0.0827   0.0963   0.1530   0.2111   0.2155   0.2707   0.3370   0.3809
     0.4079   0.4464   0.4943   0.5727   0.5884   0.6322   0.7205   0.7400
     6.4496   6.7705   6.9533   7.1868   7.3065   7.4334   7.6688   7.8146
     7.8780   7.9830   8.0128   8.0352   8.1755   8.2469   8.3670   8.4812
     8.5136   8.6129   8.7121   8.7358   8.7589   8.8983   8.9363   9.0052
     9.0638   9.1090   9.1399   9.1829   9.2696   9.2889   9.3897   9.3972
     9.5717   9.6387   9.7280   9.8517   9.9702   9.9989  10.0263  10.0700
    10.0804  10.0981  10.1253  10.2052  10.2704  10.3273  10.3795  10.4524
    10.4654  10.4867  10.5669  10.6465  10.6981  10.7754  10.8378  10.8864
    10.9027  10.9779  10.9965  11.0273  11.0537  11.0936  11.1441  11.1681
    11.2145  11.2292  11.2804  11.3038  11.3660  11.3821  11.4001  11.4471
    11.4658  11.5097  11.5458  11.5632  11.5819  11.6320  11.6667  11.7640
    11.8396  11.8920  11.9320  11.9513  11.9932  12.0823  12.0948  12.1793
    12.2453  12.2856  12.3589  12.4383  12.9601  13.0195  13.0350  13.0538
    13.0859  13.9867  14.2907  14.3248  14.8863  14.9972  15.0867  15.0996
    15.1591  15.4091  15.4324  15.5471  15.6530  15.7715  15.8369  16.0748
    16.2290  16.3691  16.4584  16.4995  16.5429  16.5633  16.5728  16.6339
    16.6571  16.6855  16.7664  16.7957  16.8180  16.8590  16.9040  16.9299
    16.9494  16.9760  16.9957  17.1186  17.1640  17.1716  17.2348  17.2423
    17.2584  17.3134  17.3598  17.3845  17.4099  17.4211  17.4452  17.4575
    17.5268  17.5613  17.5718  17.5919  17.6191  17.6484

          k =-0.5000 0.0000 0.5000 ( 31064 PWs)   bands (ev):

   -42.6152 -42.5448 -42.3838 -42.3636 -42.3331 -42.2818 -42.2416 -42.2295
   -42.2024 -42.1837 -42.1660 -42.1448 -42.1355 -42.1088 -42.0915 -42.0768
   -42.0653 -42.0378 -41.9844 -41.9633 -19.0215 -18.9675 -18.9629 -18.9337
   -18.9206 -18.9080 -18.8444 -18.8144 -18.8117 -18.7961 -18.7867 -18.7672
   -18.7599 -18.7462 -18.7305 -18.7216 -18.7171 -18.7113 -18.6899 -18.6802
   -18.6771 -18.6666 -18.6569 -18.6449 -18.6372 -18.6214 -18.5945 -18.5901
   -18.5568 -18.5514 -18.5290 -18.5235 -18.4913 -18.4811 -18.4697 -18.4641
   -18.4434 -18.4241 -18.4103 -18.4021 -18.4017 -18.3842 -18.3760 -18.3659
   -18.3547 -18.3522 -18.3434 -18.3349 -18.3260 -18.3105 -18.2941 -18.2797
   -18.2703 -18.2629 -18.2543 -18.2395 -18.2130 -18.2005 -18.1592 -18.1580
    -1.9634  -1.7449  -1.5580  -1.4190  -0.7856  -0.6258  -0.4870  -0.4486
    -0.4280  -0.3892  -0.3376  -0.3044  -0.2381  -0.1971  -0.1844  -0.0871
    -0.0651   0.0197   0.1488   0.1888   0.2305   0.2477   0.3564   0.4022
     0.4529   0.4742   0.4960   0.5312   0.6467   0.7239   0.7434   0.7765
     6.5645   6.8341   7.2234   7.3890   7.5539   7.6468   7.7367   7.8073
     7.8394   7.9548   8.0656   8.0770   8.1972   8.3163   8.3316   8.3574
     8.5022   8.5103   8.5948   8.6071   8.7145   8.7458   8.8640   8.8875
     8.9128   8.9483   8.9873   9.1378   9.2119   9.3143   9.3805   9.4399
     9.5609   9.6431   9.7898   9.9159   9.9407   9.9790   9.9991  10.1620
    10.1767  10.1970  10.2496  10.3048  10.3164  10.3462  10.3559  10.4461
    10.4560  10.4714  10.5300  10.6065  10.6153  10.7122  10.7891  10.8355
    10.8665  10.8676  10.9134  10.9490  11.0410  11.0592  11.0989  11.1203
    11.1365  11.2014  11.2134  11.2356  11.2768  11.3265  11.3410  11.4030
    11.4534  11.4932  11.4959  11.5377  11.6014  11.6646  11.6767  11.8570
    11.9086  11.9475  11.9592  12.0107  12.0415  12.1264  12.2181  12.2603
    12.2878  12.3259  12.4441  12.4706  12.5073  12.5771  12.6570  12.8916
    14.3183  14.5072  14.5886  14.7239  14.8722  14.9451  14.9647  15.0782
    15.3546  15.4110  15.5219  15.5741  15.6309  15.7534  15.8070  15.8791
    15.9392  16.0295  16.0667  16.1491  16.2382  16.2798  16.3617  16.4967
    16.5909  16.6178  16.6553  16.6711  16.7647  16.7985  16.8493  16.8866
    16.9324  16.9773  16.9881  17.0210  17.0727  17.1532  17.1754  17.2084
    17.2427  17.2821  17.3611  17.3957  17.5082  17.5544  17.5828  17.6148
    17.6309  17.6475  17.6837  17.7067  17.7411  17.7530

          k =-0.5000 0.5000 0.0000 ( 31064 PWs)   bands (ev):

   -42.6152 -42.5448 -42.3838 -42.3636 -42.3330 -42.2817 -42.2429 -42.2291
   -42.2024 -42.1830 -42.1655 -42.1436 -42.1364 -42.1080 -42.0940 -42.0774
   -42.0639 -42.0378 -41.9843 -41.9633 -19.0167 -18.9708 -18.9525 -18.9248
   -18.9166 -18.9062 -18.8552 -18.8322 -18.8194 -18.8109 -18.7901 -18.7767
   -18.7514 -18.7487 -18.7435 -18.7207 -18.7083 -18.7017 -18.6958 -18.6849
   -18.6768 -18.6666 -18.6416 -18.6353 -18.6332 -18.6103 -18.6006 -18.5851
   -18.5733 -18.5270 -18.5229 -18.5128 -18.4971 -18.4899 -18.4655 -18.4540
   -18.4369 -18.4348 -18.4205 -18.4122 -18.4111 -18.3909 -18.3847 -18.3652
   -18.3515 -18.3396 -18.3329 -18.3249 -18.3242 -18.3159 -18.3018 -18.2845
   -18.2679 -18.2652 -18.2499 -18.2356 -18.2195 -18.2022 -18.1641 -18.1532
    -1.9904  -1.6931  -1.6194  -1.3116  -0.7666  -0.6857  -0.5748  -0.5035
    -0.4165  -0.4064  -0.3377  -0.2799  -0.2639  -0.2187  -0.1350  -0.0581
     0.0069   0.0638   0.0974   0.1588   0.2172   0.2329   0.3045   0.4463
     0.4767   0.5102   0.5337   0.5978   0.6114   0.6478   0.7456   0.7898
     6.6410   6.9669   7.0394   7.2603   7.4835   7.7050   7.7726   7.8669
     8.0084   8.0449   8.0655   8.1207   8.1269   8.2304   8.2917   8.3556
     8.4051   8.4692   8.5166   8.5686   8.6228   8.7159   8.7839   8.8356
     8.8681   8.8847   8.9406   9.1719   9.3125   9.3842   9.4718   9.4801
     9.6778   9.7367   9.8358   9.8767   9.8979  10.0001  10.0575  10.1379
    10.1879  10.2047  10.2839  10.3052  10.3617  10.4028  10.4128  10.4695
    10.4941  10.5473  10.5757  10.6087  10.6578  10.6782  10.7579  10.7892
    10.8450  10.9052  10.9264  10.9473  10.9920  11.0351  11.0599  11.1221
    11.1662  11.1810  11.2534  11.2693  11.3153  11.3602  11.3882  11.4045
    11.4384  11.4806  11.5146  11.5426  11.5811  11.6588  11.6758  11.7336
    11.8161  11.8759  11.9500  12.0300  12.1111  12.1620  12.1869  12.2447
    12.2809  12.3198  12.3646  12.3738  12.4360  12.5494  12.6242  12.8744
    14.2814  14.4435  14.6167  14.7807  14.8779  15.0459  15.1137  15.1967
    15.2055  15.2956  15.4774  15.5501  15.6041  15.7517  15.8145  15.8770
    15.9264  15.9868  16.0196  16.1760  16.2996  16.3752  16.4742  16.5477
    16.6225  16.6660  16.7006  16.7184  16.7700  16.8082  16.8565  16.9065
    16.9875  17.0305  17.0450  17.0829  17.1070  17.1458  17.1806  17.2307
    17.2449  17.2691  17.3122  17.3638  17.4101  17.4243  17.4751  17.4791
    17.5830  17.6260  17.6778  17.6957  17.7471  17.7486

     the Fermi energy is    15.4010 ev

!    total energy              =   -5057.78205132 Ry
     total all-electron energy =    -43491.515156 Ry
     estimated scf accuracy    <          6.8E-09 Ry
     smearing contrib. (-TS)   =      -0.00352608 Ry
     internal energy E=F+TS    =   -5057.77852524 Ry

     The total energy is F=E-TS. E is the sum of the following terms:
     one-electron contribution =    -903.62841957 Ry
     hartree contribution      =     730.23944967 Ry
     xc contribution           =    -592.17127180 Ry
     ewald contribution        =   -2314.54031374 Ry
     one-center paw contrib.   =   -1977.67796980 Ry

     convergence has been achieved in  21 iterations

     Forces acting on atoms (cartesian axes, Ry/au):

     atom    1 type  1   force =    -0.00505069   -0.00200153   -0.00497753
     atom    2 type  2   force =    -0.00045633   -0.00682409   -0.00634156
     atom    3 type  3   force =    -0.00430557   -0.00061499   -0.00058322
     atom    4 type  2   force =    -0.00106272   -0.00104463   -0.00144125
     atom    5 type  3   force =    -0.00019708   -0.00487363    0.00015798
     atom    6 type  2   force =    -0.00667303   -0.00773612   -0.00049018
     atom    7 type  3   force =    -0.00093985   -0.00029569   -0.00460526
     atom    8 type  2   force =    -0.00600348    0.00031672   -0.00570738
     atom    9 type  3   force =    -0.00603597   -0.00473375    0.00100012
     atom   10 type  2   force =    -0.00167704   -0.00563494    0.00007774
     atom   11 type  3   force =    -0.00494849    0.00019279    0.00376143
     atom   12 type  2   force =    -0.00133341    0.00009998    0.00638275
     atom   13 type  1   force =     0.00034826   -0.00522733    0.00471426
     atom   14 type  2   force =    -0.00485757   -0.00612534    0.00754167
     atom   15 type  3   force =    -0.00048657   -0.00076610    0.00043990
     atom   16 type  2   force =    -0.00655250   -0.00006458    0.00068139
     atom   17 type  1   force =    -0.00573356   -0.00068209   -0.00348365
     atom   18 type  2   force =     0.00059147    0.00132672   -0.00702420
     atom   19 type  3   force =    -0.00390299    0.00855762   -0.00051773
     atom   20 type  2   force =     0.00029704    0.00593585    0.00026324
     atom   21 type  3   force =     0.00070010   -0.00067187    0.00073273
     atom   22 type  2   force =    -0.00654573    0.00241575    0.00061998
     atom   23 type  3   force =    -0.00032469    0.00386969   -0.00549648
     atom   24 type  2   force =    -0.00618640    0.00394322   -0.00581851
     atom   25 type  1   force =    -0.00402934    0.00068721   -0.00014630
     atom   26 type  2   force =     0.00052799    0.00058776    0.00135203
     atom   27 type  1   force =    -0.00327065    0.00413061    0.00322372
     atom   28 type  2   force =     0.00082072    0.00698423    0.00460779
     atom   29 type  3   force =    -0.00081224   -0.00051481    0.00715567
     atom   30 type  2   force =    -0.00835894    0.00092101    0.00360563
     atom   31 type  1   force =     0.00009994    0.00455987    0.00066747
     atom   32 type  2   force =    -0.00339269    0.00430186   -0.00058091
     atom   33 type  3   force =     0.00046631   -0.00392326   -0.00454230
     atom   34 type  2   force =     0.00677833   -0.00592026   -0.00568839
     atom   35 type  3   force =     0.00061310   -0.00117786   -0.00003917
     atom   36 type  2   force =     0.00603771    0.00049075   -0.00175036
     atom   37 type  1   force =     0.00542148   -0.00371127    0.00021426
     atom   38 type  2   force =     0.00015584   -0.00599508   -0.00143684
     atom   39 type  3   force =     0.00340066    0.00115293   -0.00461711
     atom   40 type  2   force =    -0.00012347   -0.00215018   -0.00673664
     atom   41 type  3   force =    -0.00024052   -0.00341028   -0.00008729
     atom   42 type  2   force =     0.00730932   -0.00794013   -0.00075161
     atom   43 type  3   force =     0.00069637   -0.00065037    0.00482661
     atom   44 type  2   force =     0.00598941    0.00028654    0.00585377
     atom   45 type  1   force =     0.00355503   -0.00259615    0.00385472
     atom   46 type  2   force =    -0.00076370   -0.00659448    0.00625536
     atom   47 type  3   force =     0.00481438    0.00041827   -0.00024984
     atom   48 type  2   force =     0.00075686   -0.00153355    0.00169258
     atom   49 type  3   force =     0.00141313   -0.00094966   -0.00593765
     atom   50 type  2   force =     0.00840009    0.00079174   -0.00367123
     atom   51 type  1   force =     0.00018885    0.00443883   -0.00041118
     atom   52 type  2   force =     0.00335279    0.00494357   -0.00019988
     atom   53 type  1   force =     0.00541161    0.00049664    0.00034426
     atom   54 type  2   force =     0.00000393    0.00060615   -0.00090104
     atom   55 type  1   force =     0.00330088    0.00360215   -0.00335536
     atom   56 type  2   force =    -0.00144664    0.00568518   -0.00385105
     atom   57 type  3   force =     0.00041983   -0.00033255   -0.00001142
     atom   58 type  2   force =     0.00739947    0.00179896   -0.00012615
     atom   59 type  3   force =    -0.00002774    0.00382808    0.00504182
     atom   60 type  2   force =     0.00628458    0.00449821    0.00517763
     atom   61 type  1   force =     0.00581374   -0.00132397    0.00314080
     atom   62 type  2   force =    -0.00103471    0.00067088    0.00757711
     atom   63 type  3   force =     0.00439454    0.00775121   -0.00003984
     atom   64 type  2   force =     0.00101056    0.00572957    0.00065407

     Total force =     0.053989     Total SCF correction =     0.000399


     Computing stress (Cartesian axis) and pressure

          total   stress  (Ry/bohr**3)                   (kbar)     P=       21.68
   0.00017476  -0.00002874   0.00006946           25.71       -4.23       10.22
  -0.00002874   0.00013810  -0.00003250           -4.23       20.32       -4.78
   0.00006946  -0.00003250   0.00012926           10.22       -4.78       19.02

 
     init_run     :      3.21s CPU      3.36s WALL (       1 calls)
     electrons    :    163.20s CPU    166.63s WALL (       1 calls)
     forces       :      1.79s CPU      1.84s WALL (       1 calls)
     stress       :     17.65s CPU     17.81s WALL (       1 calls)

     Called by init_run:
     wfcinit      :      2.76s CPU      2.86s WALL (       1 calls)
     potinit      :      0.21s CPU      0.22s WALL (       1 calls)
     hinit0       :      0.12s CPU      0.13s WALL (       1 calls)

     Called by electrons:
     c_bands      :    140.96s CPU    143.41s WALL (      21 calls)
     sum_band     :     15.93s CPU     16.44s WALL (      21 calls)
     v_of_rho     :      0.78s CPU      0.79s WALL (      22 calls)
     newd         :      1.31s CPU      1.59s WALL (      22 calls)
     PAW_pot      :      3.44s CPU      3.50s WALL (      22 calls)
     mix_rho      :      1.00s CPU      1.09s WALL (      21 calls)

     Called by c_bands:
     init_us_2    :      1.76s CPU      1.79s WALL (      90 calls)
     init_us_2:cp :      1.76s CPU      1.79s WALL (      90 calls)
     cegterg      :    127.30s CPU    129.67s WALL (      42 calls)

     Called by *egterg:
     cdiaghg      :     14.55s CPU     14.81s WALL (     227 calls)
     h_psi        :     61.51s CPU     62.47s WALL (     229 calls)
     s_psi        :     15.54s CPU     15.65s WALL (     229 calls)
     g_psi        :      0.30s CPU      0.31s WALL (     185 calls)

     Called by h_psi:
     h_psi:calbec :     15.53s CPU     15.65s WALL (     229 calls)
     vloc_psi     :     29.72s CPU     30.20s WALL (     229 calls)
     add_vuspsi   :     15.63s CPU     15.78s WALL (     229 calls)

     General routines
     calbec       :     23.04s CPU     23.21s WALL (     281 calls)
     fft          :      0.38s CPU      0.39s WALL (     267 calls)
     ffts         :      0.50s CPU      0.52s WALL (     439 calls)
     fftw         :     30.53s CPU     31.02s WALL (   65112 calls)
 
     Parallel routines
 
     PWSCF        :   3m 6.10s CPU   3m 9.97s WALL

 
   This run was terminated on:  12:20:13  14May2026            

=------------------------------------------------------------------------------=
   JOB DONE.
=------------------------------------------------------------------------------=
