
     Program PWSCF v.7.1 starts on 14May2026 at 12:30:50 

     This program is part of the open-source Quantum ESPRESSO suite
     for quantum simulation of materials; please cite
         "P. Giannozzi et al., J. Phys.:Condens. Matter 21 395502 (2009);
         "P. Giannozzi et al., J. Phys.:Condens. Matter 29 465901 (2017);
         "P. Giannozzi et al., J. Chem. Phys. 152 154105 (2020);
          URL http://www.quantum-espresso.org", 
     in publications or presentations arising from this work. More details at
     http://www.quantum-espresso.org/quote

     Parallel version (MPI & OpenMP), running on      32 processor cores
     Number of MPI processes:                32
     Threads/MPI process:                     1

     MPI processes distributed on     1 nodes
     91339 MiB available memory on the printing compute node when the environment starts
 
     Reading input from TiAlN_x075optimalvolume825199.in

     Current dimensions of program PWSCF are:
     Max number of different atomic species (ntypx) = 10
     Max number of k-points (npk) = 150000
     Max angular momentum in pseudopotentials (lmaxx) =  4
     file Al.pbe-n-kjpaw_psl.1.0.0.UPF: wavefunction(s)  3S 3P renormalized
     file N.pbe-n-kjpaw_psl.1.0.0.UPF: wavefunction(s)  2S renormalized
     file Ti.pbe-spn-kjpaw_psl.1.0.0.UPF: wavefunction(s)  3S 3P 3D renormalized
 
     K-points division:     npool     =       4
     R & G space division:  proc/nbgrp/npool/nimage =       8
     Subspace diagonalization in iterative solution of the eigenvalue problem:
     one sub-group per band group will be used
     scalapack distributed-memory algorithm (size of sub-group:  2*  2 procs)

 
     Parallelization info
     --------------------
     sticks:   dense  smooth     PW     G-vecs:    dense   smooth      PW
     Min         580     580    158                29790    29790    4234
     Max         581     581    159                29793    29793    4237
     Sum        4645    4645   1265               238329   238329   33881
 
     Using Slab Decomposition
 


     bravais-lattice index     =            0
     lattice parameter (alat)  =      15.5940  a.u.
     unit-cell volume          =    3792.0334 (a.u.)^3
     number of atoms/cell      =           64
     number of atomic types    =            3
     number of electrons       =       328.00
     number of Kohn-Sham states=          197
     kinetic-energy cutoff     =      60.0000  Ry
     charge density cutoff     =     240.0000  Ry
     scf convergence threshold =      1.0E-08
     mixing beta               =       0.2000
     number of iterations used =            8  local-TF  mixing
     Exchange-correlation= SLA  PW   PBX  PBC
                           (   1   4   3   4   0   0   0)

     celldm(1)=  15.594001  celldm(2)=   0.000000  celldm(3)=   0.000000
     celldm(4)=   0.000000  celldm(5)=   0.000000  celldm(6)=   0.000000

     crystal axes: (cart. coord. in units of alat)
               a(1) = (   1.000000   0.000000   0.000000 )  
               a(2) = (   0.000000   1.000000   0.000000 )  
               a(3) = (   0.000000   0.000000   0.999999 )  

     reciprocal axes: (cart. coord. in units 2 pi/alat)
               b(1) = (  1.000000  0.000000  0.000000 )  
               b(2) = (  0.000000  1.000000  0.000000 )  
               b(3) = (  0.000000  0.000000  1.000001 )  


     PseudoPot. # 1 for Al read from file:
     ../../../pseudo/Al.pbe-n-kjpaw_psl.1.0.0.UPF
     MD5 check sum: 502b6b27b9c6270cab5dd1084b96fa6d
     Pseudo is Projector augmented-wave + core cor, Zval =  3.0
     Generated using &quot;atomic&quot; code by A. Dal Corso  v.6.3
     Shape of augmentation charge: PSQ
     Using radial grid of 1135 points,  6 beta functions with: 
                l(1) =   0
                l(2) =   0
                l(3) =   1
                l(4) =   1
                l(5) =   2
                l(6) =   2
     Q(r) pseudized with 0 coefficients 


     PseudoPot. # 2 for N  read from file:
     ../../../pseudo/N.pbe-n-kjpaw_psl.1.0.0.UPF
     MD5 check sum: 14c48229446f9f2d411169a3abcbc3fa
     Pseudo is Projector augmented-wave + core cor, Zval =  5.0
     Generated using &quot;atomic&quot; code by A. Dal Corso  v.6.3
     Shape of augmentation charge: PSQ
     Using radial grid of 1085 points,  4 beta functions with: 
                l(1) =   0
                l(2) =   0
                l(3) =   1
                l(4) =   1
     Q(r) pseudized with 0 coefficients 


     PseudoPot. # 3 for Ti read from file:
     ../../../pseudo/Ti.pbe-spn-kjpaw_psl.1.0.0.UPF
     MD5 check sum: 01f69b0d8ba4438b2e03ac6ea4af1c0b
     Pseudo is Projector augmented-wave + core cor, Zval = 12.0
     Generated using &quot;atomic&quot; code by A. Dal Corso  v.6.2.2
     Shape of augmentation charge: PSQ
     Using radial grid of 1177 points,  6 beta functions with: 
                l(1) =   0
                l(2) =   0
                l(3) =   1
                l(4) =   1
                l(5) =   2
                l(6) =   2
     Q(r) pseudized with 0 coefficients 


     atomic species   valence    mass     pseudopotential
        Al             3.00    26.98200     Al( 1.00)
        N              5.00    14.00700     N ( 1.00)
        Ti            12.00    47.86700     Ti( 1.00)

     No symmetry found



   Cartesian axes

     site n.     atom                  positions (alat units)
         1           Al  tau(   1) = (   0.0002401   0.0015741  -0.0009780  )
         2           N   tau(   2) = (   0.2477692  -0.0012893   0.0000982  )
         3           Al  tau(   3) = (   0.0008502   0.2477963   0.2483107  )
         4           N   tau(   4) = (   0.2498619   0.2478227   0.2442202  )
         5           Al  tau(   5) = (   0.2494737  -0.0007714   0.2487753  )
         6           N   tau(   6) = (   0.0014368   0.0049941   0.2490691  )
         7           Al  tau(   7) = (   0.2483132   0.2481185   0.0001025  )
         8           N   tau(   8) = (   0.0003357   0.2481320   0.0000314  )
         9           Al  tau(   9) = (  -0.0003232   0.0029137   0.4997349  )
        10           N   tau(  10) = (   0.2470377  -0.0052022   0.4983953  )
        11           Al  tau(  11) = (  -0.0004110   0.2477575   0.7488135  )
        12           N   tau(  12) = (   0.2474289   0.2464368   0.7527846  )
        13           Al  tau(  13) = (   0.2492414  -0.0024660   0.7480292  )
        14           N   tau(  14) = (   0.0018970   0.0017711   0.7481082  )
        15           Ti  tau(  15) = (   0.2567626   0.2554951   0.4993440  )
        16           N   tau(  16) = (   0.0011143   0.2495774   0.4989625  )
        17           Al  tau(  17) = (  -0.0000808   0.4958793  -0.0035568  )
        18           N   tau(  18) = (   0.2424633   0.4997117   0.0004138  )
        19           Ti  tau(  19) = (  -0.0053869   0.7423692   0.2506451  )
        20           N   tau(  20) = (   0.2530119   0.7485464   0.2480345  )
        21           Al  tau(  21) = (   0.2506514   0.4993531   0.2460256  )
        22           N   tau(  22) = (   0.0082877   0.4912135   0.2484051  )
        23           Al  tau(  23) = (   0.2479231   0.7491590  -0.0002513  )
        24           N   tau(  24) = (  -0.0001274   0.7482419  -0.0030084  )
        25           Al  tau(  25) = (   0.0038441   0.4984905   0.5025062  )
        26           N   tau(  26) = (   0.2418526   0.5061498   0.4975976  )
        27           Al  tau(  27) = (   0.0003226   0.7484124   0.7475537  )
        28           N   tau(  28) = (   0.2435774   0.7473847   0.7483868  )
        29           Al  tau(  29) = (   0.2438894   0.4987982   0.7504212  )
        30           N   tau(  30) = (   0.0061696   0.4958359   0.7480473  )
        31           Al  tau(  31) = (   0.2499454   0.7489568   0.4984404  )
        32           N   tau(  32) = (   0.0009671   0.7503614   0.5015069  )
        33           Al  tau(  33) = (   0.4984251  -0.0006801  -0.0004766  )
        34           N   tau(  34) = (   0.7491597  -0.0013651   0.0004773  )
        35           Al  tau(  35) = (   0.4975428   0.2464951   0.2434430  )
        36           N   tau(  36) = (   0.7468296   0.2416182   0.2417183  )
        37           Al  tau(  37) = (   0.7459577   0.0019012   0.2497039  )
        38           N   tau(  38) = (   0.4961633   0.0023031   0.2488095  )
        39           Al  tau(  39) = (   0.7494605   0.2456582   0.0000355  )
        40           N   tau(  40) = (   0.4983594   0.2413823   0.0008984  )
        41           Al  tau(  41) = (   0.4992788  -0.0022907   0.4984398  )
        42           N   tau(  42) = (   0.7501203  -0.0045622   0.4982411  )
        43           Al  tau(  43) = (   0.4972645   0.2420954   0.7531550  )
        44           N   tau(  44) = (   0.7476010   0.2408507   0.7557917  )
        45           Al  tau(  45) = (   0.7479281   0.0008625   0.7473124  )
        46           N   tau(  46) = (   0.4965857   0.0039052   0.7472811  )
        47           Ti  tau(  47) = (   0.7411180   0.2618282   0.4997347  )
        48           N   tau(  48) = (   0.4978561   0.2375022   0.4961262  )
        49           Ti  tau(  49) = (   0.5046237   0.5023495  -0.0090057  )
        50           N   tau(  50) = (   0.7557863   0.5009550   0.0015842  )
        51           Al  tau(  51) = (   0.4968933   0.7503407   0.2494674  )
        52           N   tau(  52) = (   0.7407467   0.7570150   0.2471107  )
        53           Ti  tau(  53) = (   0.7448214   0.4974581   0.2576729  )
        54           N   tau(  54) = (   0.4901132   0.4950370   0.2463240  )
        55           Al  tau(  55) = (   0.7492072   0.7516715  -0.0008063  )
        56           N   tau(  56) = (   0.4982228   0.7551893   0.0058682  )
        57           Ti  tau(  57) = (   0.5062911   0.4949458   0.5051243  )
        58           N   tau(  58) = (   0.7627453   0.5155429   0.4977269  )
        59           Ti  tau(  59) = (   0.5035380   0.7340922   0.7454490  )
        60           N   tau(  60) = (   0.7551286   0.7577069   0.7493682  )
        61           Ti  tau(  61) = (   0.7363865   0.4993004   0.7410115  )
        62           N   tau(  62) = (   0.4819191   0.4807720   0.7485528  )
        63           Al  tau(  63) = (   0.7480614   0.7542000   0.4993993  )
        64           N   tau(  64) = (   0.4990290   0.7558982   0.4909943  )

     number of k points=     8  Gaussian smearing, width (Ry)=  0.0050
                       cart. coord. in units 2pi/alat
        k(    1) = (   0.0000000   0.0000000   0.0000000), wk =   0.2500000
        k(    2) = (   0.0000000   0.0000000  -0.5000006), wk =   0.2500000
        k(    3) = (   0.0000000  -0.5000000   0.0000000), wk =   0.2500000
        k(    4) = (   0.0000000  -0.5000000  -0.5000006), wk =   0.2500000
        k(    5) = (  -0.5000000  -0.5000000   0.0000000), wk =   0.2500000
        k(    6) = (  -0.5000000  -0.5000000  -0.5000006), wk =   0.2500000
        k(    7) = (  -0.5000000   0.0000000   0.0000000), wk =   0.2500000
        k(    8) = (  -0.5000000   0.0000000   0.5000006), wk =   0.2500000

     Dense  grid:   238329 G-vectors     FFT dimensions: (  80,  80,  80)

     Estimated max dynamical RAM per process >     174.48 MB

     Estimated total dynamical RAM >       5.28 GB

     Check: negative core charge=   -0.000013

     Initial potential from superposition of free atoms

     starting charge     327.9330, renormalised to     328.0000
     Starting wfcs are  304 randomized atomic wfcs
     Checking if some PAW data can be deallocated... 

     total cpu time spent up to now is        3.9 secs

     Self-consistent Calculation

     iteration #  1     ecut=    60.00 Ry     beta= 0.20
     Davidson diagonalization with overlap
     ethr =  1.00E-02,  avg # of iterations =  2.0

     total cpu time spent up to now is        9.9 secs

     total energy              =   -3328.44109292 Ry
     estimated scf accuracy    <      16.58785405 Ry

     iteration #  2     ecut=    60.00 Ry     beta= 0.20
     Davidson diagonalization with overlap
     ethr =  5.06E-03,  avg # of iterations =  1.0

     total cpu time spent up to now is       14.7 secs

     total energy              =   -3324.68881381 Ry
     estimated scf accuracy    <       9.17487093 Ry

     iteration #  3     ecut=    60.00 Ry     beta= 0.20
     Davidson diagonalization with overlap
     ethr =  2.80E-03,  avg # of iterations =  2.0

     total cpu time spent up to now is       21.2 secs

     total energy              =   -3326.58636670 Ry
     estimated scf accuracy    <       0.76250401 Ry

     iteration #  4     ecut=    60.00 Ry     beta= 0.20
     Davidson diagonalization with overlap
     ethr =  2.32E-04,  avg # of iterations = 10.5

     total cpu time spent up to now is       28.8 secs

     total energy              =   -3326.57270683 Ry
     estimated scf accuracy    <       0.39252122 Ry

     iteration #  5     ecut=    60.00 Ry     beta= 0.20
     Davidson diagonalization with overlap
     ethr =  1.20E-04,  avg # of iterations =  2.9

     total cpu time spent up to now is       34.5 secs

     total energy              =   -3326.55276794 Ry
     estimated scf accuracy    <       0.18840089 Ry

     iteration #  6     ecut=    60.00 Ry     beta= 0.20
     Davidson diagonalization with overlap
     ethr =  5.74E-05,  avg # of iterations =  5.2

     total cpu time spent up to now is       42.2 secs

     total energy              =   -3326.55832888 Ry
     estimated scf accuracy    <       0.06995720 Ry

     iteration #  7     ecut=    60.00 Ry     beta= 0.20
     Davidson diagonalization with overlap
     ethr =  2.13E-05,  avg # of iterations = 11.2

     total cpu time spent up to now is       49.5 secs

     total energy              =   -3326.55752886 Ry
     estimated scf accuracy    <       0.01510094 Ry

     iteration #  8     ecut=    60.00 Ry     beta= 0.20
     Davidson diagonalization with overlap
     ethr =  4.60E-06,  avg # of iterations = 11.8

     total cpu time spent up to now is       59.3 secs

     total energy              =   -3326.55890825 Ry
     estimated scf accuracy    <       0.01386331 Ry

     iteration #  9     ecut=    60.00 Ry     beta= 0.20
     Davidson diagonalization with overlap
     ethr =  4.23E-06,  avg # of iterations =  4.2

     total cpu time spent up to now is       66.0 secs

     total energy              =   -3326.56036318 Ry
     estimated scf accuracy    <       0.00174910 Ry

     iteration # 10     ecut=    60.00 Ry     beta= 0.20
     Davidson diagonalization with overlap
     ethr =  5.33E-07,  avg # of iterations =  4.0

     total cpu time spent up to now is       72.3 secs

     total energy              =   -3326.56046059 Ry
     estimated scf accuracy    <       0.00059409 Ry

     iteration # 11     ecut=    60.00 Ry     beta= 0.20
     Davidson diagonalization with overlap
     ethr =  1.81E-07,  avg # of iterations =  2.4

     total cpu time spent up to now is       78.0 secs

     total energy              =   -3326.56038311 Ry
     estimated scf accuracy    <       0.00033719 Ry

     iteration # 12     ecut=    60.00 Ry     beta= 0.20
     Davidson diagonalization with overlap
     ethr =  1.03E-07,  avg # of iterations =  3.1

     total cpu time spent up to now is       83.9 secs

     total energy              =   -3326.56041507 Ry
     estimated scf accuracy    <       0.00006723 Ry

     iteration # 13     ecut=    60.00 Ry     beta= 0.20
     Davidson diagonalization with overlap
     ethr =  2.05E-08,  avg # of iterations =  3.1

     total cpu time spent up to now is       90.3 secs

     total energy              =   -3326.56042337 Ry
     estimated scf accuracy    <       0.00001065 Ry

     iteration # 14     ecut=    60.00 Ry     beta= 0.20
     Davidson diagonalization with overlap
     c_bands:  1 eigenvalues not converged
     ethr =  3.25E-09,  avg # of iterations =  6.9

     total cpu time spent up to now is       96.9 secs

     total energy              =   -3326.56042249 Ry
     estimated scf accuracy    <       0.00000497 Ry

     iteration # 15     ecut=    60.00 Ry     beta= 0.20
     Davidson diagonalization with overlap
     ethr =  1.52E-09,  avg # of iterations =  2.0

     total cpu time spent up to now is      102.2 secs

     total energy              =   -3326.56042212 Ry
     estimated scf accuracy    <       0.00000221 Ry

     iteration # 16     ecut=    60.00 Ry     beta= 0.20
     Davidson diagonalization with overlap
     ethr =  6.75E-10,  avg # of iterations =  3.0

     total cpu time spent up to now is      108.1 secs

     total energy              =   -3326.56042232 Ry
     estimated scf accuracy    <       0.00000057 Ry

     iteration # 17     ecut=    60.00 Ry     beta= 0.20
     Davidson diagonalization with overlap
     ethr =  1.75E-10,  avg # of iterations =  3.1

     total cpu time spent up to now is      113.7 secs

     total energy              =   -3326.56042230 Ry
     estimated scf accuracy    <       0.00000022 Ry

     iteration # 18     ecut=    60.00 Ry     beta= 0.20
     Davidson diagonalization with overlap
     ethr =  6.60E-11,  avg # of iterations =  4.9

     total cpu time spent up to now is      120.2 secs

     total energy              =   -3326.56042232 Ry
     estimated scf accuracy    <       0.00000007 Ry

     iteration # 19     ecut=    60.00 Ry     beta= 0.20
     Davidson diagonalization with overlap
     ethr =  1.98E-11,  avg # of iterations =  4.1

     total cpu time spent up to now is      126.1 secs

     total energy              =   -3326.56042234 Ry
     estimated scf accuracy    <       0.00000003 Ry

     iteration # 20     ecut=    60.00 Ry     beta= 0.20
     Davidson diagonalization with overlap
     ethr =  1.06E-11,  avg # of iterations =  2.0

     total cpu time spent up to now is      131.4 secs

     End of self-consistent calculation

          k = 0.0000 0.0000 0.0000 ( 29711 PWs)   bands (ev):

   -44.4487 -44.3432 -43.9130 -43.7298 -43.6944 -43.6177 -43.3133 -43.1758
   -20.8903 -20.7628 -20.7282 -20.7072 -20.6566 -20.6344 -20.3704 -20.3123
   -20.2958 -20.2013 -20.1696 -20.1355 -20.0995 -20.0770 -20.0569 -20.0067
   -19.9312 -19.8587 -19.6935 -19.6865 -19.5979 -19.5472 -19.4828 -19.3856
    -4.8751  -3.6199  -3.5482  -3.4351  -3.3015  -3.2368  -3.1210  -2.4683
    -2.4119  -2.3836  -2.3624  -2.2567  -2.2399  -2.1704  -2.1030  -2.0418
    -2.0232  -2.0098  -1.9671  -1.8428  -1.8164  -1.7169  -1.6858  -1.4322
    -1.3933  -1.3471  -1.2102  -1.1133  -1.0994  -1.0476  -1.0012  -0.9353
     4.1625   4.2160   4.2898   4.3058   5.3834   5.3977   5.4504   5.8212
     5.8517   5.9044   5.9258   6.1565   6.1736   6.2393   6.2776   6.3983
     6.4228   6.5616   6.5639   6.6852   6.7196   6.7644   6.7979   6.8137
     6.8438   6.8895   6.9149   6.9402   7.0646   7.0770   7.1889   7.5675
     7.6044   7.6819   7.7392   7.8881   7.9072   7.9432   8.0424   8.1439
     8.1674   8.1962   8.2193   8.2494   8.2663   8.3282   8.3462   8.3929
     8.4437   8.5297   8.5372   8.7045   8.8163   8.8498   9.0567   9.4549
     9.5303   9.5759   9.6073   9.6422   9.6503   9.7363   9.7462   9.8474
     9.8618   9.8636   9.9116   9.9865  10.0273  10.2218  10.2418  10.2833
    10.3813  10.4140  10.4198  10.4785  10.5019  10.5252  10.5488  10.5887
    10.6008  10.6377  10.7037  10.7264  10.7503  10.7606  10.7951  10.8600
    10.8712  10.9075  10.9107  10.9908  11.0112  11.9211  11.9562  11.9589
    12.5476  12.6791  12.7951  13.7387  13.7727  13.9089  14.0213  14.2323
    14.2798  14.6305  14.9116  15.0856  15.3188  15.4383  15.6084  15.6314
    15.7163  15.7349  15.8085  15.9194  16.0805  16.1611  16.2231  16.2696
    16.3398  16.3831  16.4845  16.5408  16.7363  16.7733  16.8426  17.0118
    17.0822  17.2854  17.3043  17.3906  17.5066

          k = 0.0000 0.0000-0.5000 ( 29750 PWs)   bands (ev):

   -44.4487 -44.3432 -43.9130 -43.7299 -43.6943 -43.6177 -43.3133 -43.1758
   -20.8903 -20.7628 -20.7282 -20.7072 -20.6566 -20.6344 -20.3684 -20.3109
   -20.2978 -20.1939 -20.1737 -20.1403 -20.0969 -20.0768 -20.0609 -20.0100
   -19.9255 -19.8606 -19.6937 -19.6856 -19.5980 -19.5472 -19.4832 -19.3853
    -4.5392  -4.3982  -3.2981  -3.2380  -3.1390  -3.1208  -3.0334  -2.8740
    -2.8237  -2.7237  -2.3036  -2.1948  -2.1476  -2.0729  -2.0461  -1.9695
    -1.9140  -1.8804  -1.8674  -1.7889  -1.5831  -1.5176  -1.4734  -1.4632
    -1.4108  -1.3511  -1.2897  -1.2656  -1.2104  -1.1398  -1.1048  -1.0857
     4.7064   4.8175   4.8378   4.8804   4.9338   4.9993   5.1221   5.1553
     5.5973   5.6300   5.7952   5.8589   5.9106   5.9362   5.9964   6.0365
     6.0732   6.1462   6.2661   6.4022   6.7809   6.8647   6.9280   6.9665
     7.0271   7.1202   7.1438   7.2214   7.2452   7.3071   7.3805   7.4451
     7.4635   7.4910   7.5617   7.6366   7.7115   7.7202   8.3490   8.3676
     8.4140   8.5558   8.6570   8.6921   8.7845   8.8026   8.9584   9.0199
     9.0471   9.0620   9.1479   9.2352   9.2714   9.3090   9.3383   9.3731
     9.4102   9.4160   9.4440   9.4610   9.4915   9.5234   9.5781   9.6231
     9.6947   9.7091   9.7715   9.8221   9.8584   9.8794   9.9459   9.9622
    10.0651  10.0842  10.1630  10.2244  10.2702  10.2732  10.3211  10.4438
    10.4784  10.4970  10.5602  10.6372  10.7171  10.7266  10.7469  10.7996
    10.8260  10.8634  10.9274  10.9321  11.3578  11.4142  11.4476  11.4964
    12.8344  13.4269  13.4604  13.5075  13.9791  14.0375  14.1410  14.3785
    14.4182  14.5619  14.6412  14.8496  15.0577  15.1703  15.3644  15.4403
    15.4778  15.7341  15.9863  16.1190  16.1468  16.1816  16.2436  16.2948
    16.3713  16.5646  16.7135  16.7257  16.8622  16.8831  17.0108  17.1205
    17.2567  17.3219  17.5261  17.6042  17.6504

          k = 0.0000-0.5000 0.0000 ( 29750 PWs)   bands (ev):

   -44.4487 -44.3432 -43.9130 -43.7298 -43.6944 -43.6177 -43.3133 -43.1758
   -20.8903 -20.7628 -20.7282 -20.7072 -20.6567 -20.6344 -20.3704 -20.3123
   -20.2958 -20.2015 -20.1695 -20.1354 -20.0995 -20.0770 -20.0569 -20.0066
   -19.9311 -19.8589 -19.6935 -19.6864 -19.5979 -19.5472 -19.4829 -19.3856
    -4.5712  -4.3644  -3.3110  -3.1303  -3.1201  -3.0838  -3.0414  -2.9402
    -2.9190  -2.7130  -2.2416  -2.1214  -2.1017  -2.0675  -2.0590  -2.0483
    -2.0370  -1.9873  -1.9206  -1.7487  -1.6908  -1.6297  -1.4912  -1.4472
    -1.3215  -1.3060  -1.2939  -1.2032  -1.1622  -1.1477  -1.0635  -0.9460
     4.6430   4.6501   4.8856   4.8924   5.0640   5.0833   5.1941   5.4418
     5.4935   5.5465   5.7694   5.9143   5.9339   5.9906   6.0746   6.1388
     6.1550   6.2655   6.3877   6.5864   6.6396   6.6655   6.7461   6.7780
     6.8122   6.8444   7.0638   7.2424   7.2723   7.3143   7.3591   7.3869
     7.4662   7.5993   7.6310   7.6608   7.6790   7.7434   8.2926   8.3503
     8.3646   8.4037   8.5234   8.5532   8.6448   8.6975   8.7263   8.7518
     8.8617   9.0895   9.1395   9.2036   9.2693   9.2777   9.3100   9.3361
     9.3951   9.4261   9.4408   9.4766   9.5248   9.5671   9.5933   9.6513
     9.6929   9.7337   9.7823   9.8235   9.8943   9.9482  10.0097  10.0578
    10.1848  10.2132  10.2215  10.2323  10.2966  10.3790  10.3984  10.5418
    10.6069  10.6308  10.6590  10.6789  10.7498  10.7708  10.8798  10.9058
    10.9270  10.9542  10.9826  10.9907  11.3940  11.4292  11.4599  11.4918
    12.5574  13.1929  13.3166  13.8821  14.0123  14.0258  14.1010  14.3614
    14.4778  14.5235  14.9343  15.0910  15.2123  15.4018  15.5249  15.5655
    15.6283  15.6952  15.7903  15.9793  16.0003  16.0589  16.1698  16.2125
    16.3014  16.3949  16.4845  16.7057  16.7363  16.7648  16.9242  17.0612
    17.2612  17.4530  17.5234  17.6949  17.7072

          k = 0.0000-0.5000-0.5000 ( 29848 PWs)   bands (ev):

   -44.4487 -44.3432 -43.9130 -43.7299 -43.6943 -43.6177 -43.3133 -43.1759
   -20.8903 -20.7629 -20.7282 -20.7072 -20.6567 -20.6344 -20.3684 -20.3109
   -20.2978 -20.1939 -20.1737 -20.1402 -20.0969 -20.0768 -20.0609 -20.0101
   -19.9254 -19.8607 -19.6937 -19.6855 -19.5980 -19.5472 -19.4832 -19.3853
    -4.2762  -4.1124  -4.0034  -3.8910  -2.9191  -2.8869  -2.8021  -2.7519
    -2.6714  -2.6364  -2.5994  -2.5383  -2.0648  -2.0113  -1.9592  -1.8872
    -1.8549  -1.7612  -1.7213  -1.6998  -1.6235  -1.5450  -1.4874  -1.4707
    -1.4651  -1.3746  -1.3602  -1.2905  -1.2490  -1.2243  -1.0665  -1.0439
     4.7064   4.7844   4.8429   4.9497   5.0837   5.2570   5.3808   5.5130
     5.6944   5.7301   5.8343   5.8615   5.9022   5.9517   5.9779   6.0343
     6.0872   6.1576   6.2468   6.2860   6.3043   6.4064   6.4773   6.5460
     6.5955   6.6811   6.7542   6.8619   6.9424   7.0146   7.5464   7.6250
     7.8252   8.0655   8.1130   8.2349   8.3286   8.3638   8.3776   8.4197
     8.4855   8.5009   8.5829   8.6148   8.6504   8.7196   8.7483   8.8262
     8.8747   8.8871   9.0070   9.0446   9.0724   9.1079   9.1551   9.1994
     9.2979   9.3836   9.4315   9.4753   9.5955   9.6328   9.7072   9.7245
     9.7435   9.7682   9.8716   9.9093   9.9238   9.9803  10.0687  10.0948
    10.0986  10.2011  10.2913  10.2974  10.3731  10.3821  10.4156  10.4273
    10.4506  10.4579  10.5384  10.5760  10.6442  10.6552  10.6830  10.7109
    10.7671  10.8011  10.8278  11.0333  11.2775  11.3657  11.4732  11.6021
    13.3195  13.4464  13.4795  13.8355  13.9432  14.0610  14.2094  14.3306
    14.4026  14.4265  14.6601  14.8814  15.0406  15.1439  15.2449  15.3386
    15.4376  15.6556  15.9739  16.0472  16.0614  16.1317  16.2254  16.2455
    16.3404  16.6904  16.7561  16.9091  16.9487  16.9689  17.1034  17.1646
    17.2822  17.3515  17.5290  17.8769  18.0106

          k =-0.5000-0.5000 0.0000 ( 29848 PWs)   bands (ev):

   -44.4487 -44.3432 -43.9130 -43.7298 -43.6944 -43.6177 -43.3133 -43.1759
   -20.8903 -20.7629 -20.7282 -20.7072 -20.6566 -20.6339 -20.3704 -20.3123
   -20.2959 -20.2015 -20.1695 -20.1356 -20.1000 -20.0770 -20.0571 -20.0066
   -19.9311 -19.8589 -19.6935 -19.6864 -19.5979 -19.5471 -19.4828 -19.3857
    -4.2240  -4.1536  -4.1386  -3.7212  -2.8872  -2.8378  -2.7942  -2.7877
    -2.7684  -2.7327  -2.4911  -2.4467  -2.1806  -2.1187  -2.0222  -1.8644
    -1.8184  -1.7891  -1.7392  -1.6913  -1.5755  -1.5648  -1.5194  -1.5166
    -1.4148  -1.3754  -1.3599  -1.2522  -1.2281  -1.0989  -1.0797  -1.0408
     4.6708   4.6824   4.9733   4.9779   5.0907   5.1470   5.4981   5.6401
     5.8081   5.8550   5.8954   5.9022   5.9444   5.9533   6.0013   6.0457
     6.0867   6.0988   6.1316   6.1872   6.2382   6.3000   6.4303   6.6096
     6.6540   6.6930   6.8274   6.8799   7.0536   7.0797   7.1679   7.4320
     7.7548   7.7808   8.0245   8.1753   8.3021   8.3272   8.3560   8.3965
     8.4720   8.5583   8.6031   8.6182   8.6684   8.7039   8.7222   8.8360
     8.8656   8.8889   8.9319   9.0008   9.0688   9.1183   9.1808   9.2293
     9.3715   9.3807   9.4453   9.4523   9.5912   9.6252   9.7168   9.7455
     9.8201   9.8468   9.8936   9.9884  10.0025  10.0407  10.0954  10.1180
    10.1558  10.2298  10.2554  10.3223  10.3574  10.3899  10.4221  10.4636
    10.4935  10.5126  10.5560  10.5673  10.6431  10.7105  10.7571  10.7635
    10.7987  10.8383  10.8432  10.8765  11.2114  11.4086  11.5247  11.5379
    13.1063  13.2050  13.4185  13.9984  14.0199  14.0976  14.4256  14.4573
    14.5086  14.5904  14.6811  14.8165  14.8932  15.0872  15.4313  15.5201
    15.5806  15.6522  15.7169  15.8599  16.0569  16.0835  16.1310  16.1818
    16.6043  16.6835  16.7408  16.8144  16.8578  16.9246  17.1239  17.1903
    17.4194  17.4602  17.5970  17.6561  17.8301

          k =-0.5000-0.5000-0.5000 ( 29824 PWs)   bands (ev):

   -44.4487 -44.3432 -43.9130 -43.7299 -43.6943 -43.6177 -43.3133 -43.1758
   -20.8903 -20.7629 -20.7282 -20.7072 -20.6566 -20.6339 -20.3684 -20.3109
   -20.2978 -20.1939 -20.1737 -20.1403 -20.0975 -20.0768 -20.0610 -20.0101
   -19.9254 -19.8608 -19.6937 -19.6855 -19.5980 -19.5470 -19.4831 -19.3854
    -3.9605  -3.9038  -3.8364  -3.7410  -3.6749  -3.6301  -3.3646  -3.2235
    -2.1268  -2.1020  -2.0535  -2.0069  -1.9442  -1.9190  -1.8732  -1.8224
    -1.7189  -1.7051  -1.6717  -1.6385  -1.6158  -1.5967  -1.5731  -1.5458
    -1.4783  -1.4448  -1.4280  -1.4166  -1.3730  -1.3615  -1.2869  -1.2538
     5.1420   5.1670   5.2098   5.2239   5.2624   5.3052   5.3512   5.4010
     5.4217   5.4524   5.4770   5.5009   5.5228   5.5609   5.6513   5.7326
     5.8403   5.9677   6.1610   6.2843   6.3108   6.4295   6.6158   6.6576
     7.4026   7.4841   7.5012   7.5985   7.6505   7.6755   7.7071   7.7580
     7.8003   7.8099   7.8735   7.9330   8.0241   8.0727   8.1285   8.1496
     8.2198   8.2513   8.3317   8.4011   8.4225   8.4504   8.4655   8.5177
     8.5468   8.5906   8.6709   8.7168   8.7673   8.9401   9.0044   9.1025
     9.3432   9.3941   9.4813   9.5225   9.5431   9.6108   9.6696   9.6992
     9.7301   9.7728   9.8441   9.8711   9.9386  10.0036  10.0574  10.0776
    10.1401  10.1497  10.2469  10.3171  10.3342  10.3986  10.4802  10.5475
    10.7931  10.8007  10.8162  10.8778  10.9549  10.9830  11.0054  11.0643
    11.1203  11.2104  11.2278  11.2660  11.2806  11.3046  11.3277  11.3402
    13.3900  13.4683  13.5364  13.8632  13.9304  14.0299  14.1006  14.3316
    14.3741  14.4471  14.5607  14.7118  14.8524  14.9655  15.0293  15.2078
    15.3384  15.4723  15.8876  16.0172  16.1185  16.1632  16.2142  16.3699
    16.8208  16.8957  16.9853  17.0155  17.1236  17.1640  17.2731  17.2885
    17.4397  17.5561  17.7634  17.8453  17.9909

          k =-0.5000 0.0000 0.0000 ( 29750 PWs)   bands (ev):

   -44.4487 -44.3432 -43.9130 -43.7298 -43.6944 -43.6177 -43.3133 -43.1758
   -20.8903 -20.7628 -20.7282 -20.7072 -20.6566 -20.6339 -20.3704 -20.3123
   -20.2959 -20.2013 -20.1696 -20.1356 -20.1000 -20.0770 -20.0570 -20.0067
   -19.9312 -19.8587 -19.6935 -19.6865 -19.5978 -19.5470 -19.4827 -19.3857
    -4.5597  -4.3789  -3.3174  -3.2195  -3.1205  -3.0653  -3.0087  -2.8987
    -2.8160  -2.7850  -2.3259  -2.1532  -2.1158  -2.0912  -2.0732  -2.0278
    -1.9341  -1.8856  -1.8400  -1.8231  -1.7151  -1.5076  -1.4950  -1.4677
    -1.3985  -1.3475  -1.2193  -1.1814  -1.1658  -1.1252  -1.1072  -1.0861
     4.7555   4.7887   4.8056   4.8259   4.9221   4.9924   5.2627   5.3348
     5.5797   5.5975   5.7496   5.8603   5.8978   5.8995   5.9862   6.0849
     6.2615   6.3341   6.4208   6.4844   6.6352   6.7184   6.7807   6.8788
     6.9242   6.9755   7.0640   7.1489   7.1730   7.2863   7.3158   7.3713
     7.4551   7.5269   7.5730   7.6626   7.6842   7.8803   8.3515   8.4238
     8.4688   8.4898   8.5722   8.5979   8.6288   8.6615   8.8284   8.9093
     9.0889   9.1170   9.1777   9.2322   9.2894   9.3036   9.3130   9.3580
     9.4116   9.4394   9.4483   9.5094   9.5355   9.6345   9.6519   9.6656
     9.7151   9.7399   9.8136   9.8310   9.8997   9.9632  10.0010  10.0295
    10.0357  10.0477  10.1167  10.1755  10.2352  10.3802  10.3956  10.4232
    10.4563  10.5071  10.5515  10.6869  10.7370  10.8012  10.8214  10.8425
    10.8545  10.8768  10.8992  10.9596  11.4054  11.4097  11.4174  11.4588
    12.7086  13.1044  13.4048  13.6555  14.0179  14.1410  14.3847  14.4158
    14.5515  14.6091  14.7757  14.8827  14.9520  15.0707  15.5168  15.5443
    15.6702  15.6920  15.7925  16.0052  16.0857  16.1666  16.2278  16.2473
    16.4650  16.5652  16.6081  16.6685  16.8601  16.8780  17.0175  17.0830
    17.2569  17.3291  17.3593  17.4323  17.5317

          k =-0.5000 0.0000 0.5000 ( 29848 PWs)   bands (ev):

   -44.4487 -44.3432 -43.9130 -43.7299 -43.6943 -43.6177 -43.3133 -43.1759
   -20.8903 -20.7629 -20.7282 -20.7072 -20.6566 -20.6339 -20.3684 -20.3109
   -20.2978 -20.1939 -20.1737 -20.1404 -20.0975 -20.0768 -20.0610 -20.0100
   -19.9255 -19.8606 -19.6937 -19.6856 -19.5980 -19.5470 -19.4831 -19.3854
    -4.2422  -4.1332  -4.0374  -3.8828  -2.8973  -2.8605  -2.8280  -2.7807
    -2.7548  -2.6857  -2.4889  -2.4745  -2.0190  -1.9978  -1.8947  -1.8813
    -1.8355  -1.8085  -1.7023  -1.6495  -1.6345  -1.5847  -1.5549  -1.4765
    -1.4141  -1.3950  -1.3737  -1.3294  -1.2811  -1.2018  -1.1173  -1.0553
     4.8063   4.8488   4.8879   4.9029   5.1714   5.2052   5.2967   5.3121
     5.6095   5.6859   5.7355   5.7798   5.8470   5.9615   5.9940   6.0522
     6.0598   6.1006   6.1570   6.2551   6.3737   6.4078   6.4663   6.5799
     6.6531   6.7807   6.8567   6.9257   7.0827   7.2560   7.4390   7.5901
     7.8964   7.9663   8.2732   8.3239   8.3599   8.4033   8.4540   8.4924
     8.5237   8.5387   8.5837   8.6223   8.6902   8.8482   8.8857   8.9007
     8.9436   8.9567   9.0105   9.0350   9.0850   9.1593   9.2341   9.2460
     9.2952   9.3128   9.3527   9.3819   9.5360   9.5791   9.6204   9.6472
     9.7098   9.7399   9.7900   9.8322   9.8670   9.8870  10.0247  10.0372
    10.1216  10.1574  10.2060  10.2294  10.3073  10.3268  10.3785  10.4175
    10.4463  10.4573  10.4656  10.5216  10.6011  10.6888  10.7275  10.7456
    10.7642  10.7904  10.8232  10.8721  11.3742  11.3895  11.4980  11.5832
    13.3950  13.4691  13.5270  13.8899  13.9760  14.0247  14.1694  14.3603
    14.4461  14.5509  14.5751  14.7647  14.9033  15.0234  15.0826  15.2593
    15.4581  15.5553  15.9804  16.0402  16.1823  16.2125  16.2517  16.3583
    16.5228  16.5713  16.8152  16.8939  16.9273  17.0031  17.0851  17.1845
    17.2408  17.4658  17.6594  17.7423  17.8422

     the Fermi energy is    13.9008 ev

!    total energy              =   -3326.56042233 Ry
     total all-electron energy =    -28826.931969 Ry
     estimated scf accuracy    <          5.6E-09 Ry
     smearing contrib. (-TS)   =      -0.00231969 Ry
     internal energy E=F+TS    =   -3326.55810265 Ry

     The total energy is F=E-TS. E is the sum of the following terms:
     one-electron contribution =    -479.76301557 Ry
     hartree contribution      =     466.50182732 Ry
     xc contribution           =    -402.58564520 Ry
     ewald contribution        =   -1301.10233195 Ry
     one-center paw contrib.   =   -1609.60893725 Ry

     convergence has been achieved in  20 iterations

     Forces acting on atoms (cartesian axes, Ry/au):

     atom    1 type  1   force =    -0.00488512   -0.00368297   -0.00321066
     atom    2 type  2   force =    -0.00038961   -0.00701750   -0.00555278
     atom    3 type  1   force =    -0.00376229    0.00061497    0.00060782
     atom    4 type  2   force =     0.00067754    0.00060627    0.00018279
     atom    5 type  1   force =     0.00002125   -0.00461432    0.00000561
     atom    6 type  2   force =    -0.00451645   -0.00464763    0.00053763
     atom    7 type  1   force =    -0.00057589   -0.00075330   -0.00571640
     atom    8 type  2   force =    -0.00645997    0.00026185   -0.00592142
     atom    9 type  1   force =    -0.00497188   -0.00349295   -0.00113982
     atom   10 type  2   force =     0.00065175   -0.00753773   -0.00017423
     atom   11 type  1   force =    -0.00454094    0.00073425    0.00428360
     atom   12 type  2   force =     0.00035764   -0.00023442    0.00626784
     atom   13 type  1   force =     0.00009533   -0.00559501    0.00420342
     atom   14 type  2   force =    -0.00550916   -0.00546990    0.00556764
     atom   15 type  3   force =    -0.00049288    0.00087775    0.00010011
     atom   16 type  2   force =    -0.00679910    0.00091791   -0.00002835
     atom   17 type  1   force =    -0.00593155   -0.00023025   -0.00483556
     atom   18 type  2   force =    -0.00047523   -0.00049310   -0.00622088
     atom   19 type  3   force =    -0.00687075    0.00529924    0.00087159
     atom   20 type  2   force =    -0.00055075    0.00482110    0.00012031
     atom   21 type  1   force =    -0.00020867   -0.00043405    0.00009839
     atom   22 type  2   force =    -0.00599782    0.00173407    0.00056569
     atom   23 type  1   force =     0.00020177    0.00420579   -0.00468258
     atom   24 type  2   force =    -0.00610409    0.00521146   -0.00650937
     atom   25 type  1   force =    -0.00769812   -0.00003455    0.00021047
     atom   26 type  2   force =    -0.00082522   -0.00005268   -0.00023992
     atom   27 type  1   force =    -0.00582090    0.00364934    0.00464091
     atom   28 type  2   force =    -0.00042800    0.00541418    0.00540289
     atom   29 type  1   force =     0.00009229   -0.00062011    0.00475028
     atom   30 type  2   force =    -0.00482646    0.00006905    0.00611910
     atom   31 type  1   force =     0.00077035    0.00540729    0.00008424
     atom   32 type  2   force =    -0.00572142    0.00475055    0.00017785
     atom   33 type  1   force =    -0.00000897   -0.00705466   -0.00381442
     atom   34 type  2   force =     0.00574636   -0.00699215   -0.00561164
     atom   35 type  1   force =     0.00013122   -0.00071376   -0.00016490
     atom   36 type  2   force =     0.00448589    0.00057751   -0.00027968
     atom   37 type  1   force =     0.00401138   -0.00671118    0.00039756
     atom   38 type  2   force =    -0.00004652   -0.00587210    0.00053407
     atom   39 type  1   force =     0.00429658   -0.00017900   -0.00644318
     atom   40 type  2   force =    -0.00036160   -0.00057734   -0.00649293
     atom   41 type  1   force =     0.00035874   -0.00784069   -0.00042449
     atom   42 type  2   force =     0.00569885   -0.00969130    0.00012970
     atom   43 type  1   force =    -0.00002229    0.00005576    0.00526744
     atom   44 type  2   force =     0.00497274   -0.00065059    0.00761783
     atom   45 type  1   force =     0.00335134   -0.00668369    0.00372773
     atom   46 type  2   force =    -0.00019435   -0.00457288    0.00485226
     atom   47 type  3   force =     0.00634951   -0.00046062    0.00043793
     atom   48 type  2   force =     0.00152926    0.00046279   -0.00007402
     atom   49 type  3   force =    -0.00082651   -0.00124725   -0.01120129
     atom   50 type  2   force =     0.00700305    0.00017811   -0.00698951
     atom   51 type  1   force =     0.00120495    0.00422042   -0.00002518
     atom   52 type  2   force =     0.00724570    0.00791083    0.00019256
     atom   53 type  3   force =     0.00567673    0.00118984   -0.00020281
     atom   54 type  2   force =     0.00060401    0.00012702   -0.00211589
     atom   55 type  1   force =     0.00398415    0.00639731   -0.00379413
     atom   56 type  2   force =     0.00002550    0.00591781   -0.00592540
     atom   57 type  3   force =     0.00054464    0.00116613   -0.00035781
     atom   58 type  2   force =     0.00795133    0.00055599    0.00154566
     atom   59 type  3   force =    -0.00076930    0.00591989    0.00600147
     atom   60 type  2   force =     0.00719723    0.00878481    0.00577412
     atom   61 type  3   force =     0.00642254   -0.00099731    0.00606510
     atom   62 type  2   force =     0.00092634    0.00052338    0.01102990
     atom   63 type  1   force =     0.00396466    0.00831239   -0.00095483
     atom   64 type  2   force =     0.00004121    0.00827992    0.00073258

     Total force =     0.058930     Total SCF correction =     0.000276


     Computing stress (Cartesian axis) and pressure

          total   stress  (Ry/bohr**3)                   (kbar)     P=       13.71
   0.00010720   0.00001608   0.00001256           15.77        2.37        1.85
   0.00001608   0.00011269  -0.00001276            2.37       16.58       -1.88
   0.00001256  -0.00001276   0.00005972            1.85       -1.88        8.79


     Writing all to output data dir ../output/tialn.save/
 
     init_run     :      3.29s CPU      3.44s WALL (       1 calls)
     electrons    :    125.09s CPU    127.79s WALL (       1 calls)
     forces       :      1.97s CPU      2.02s WALL (       1 calls)
     stress       :     14.95s CPU     15.07s WALL (       1 calls)

     Called by init_run:
     wfcinit      :      2.47s CPU      2.56s WALL (       1 calls)
     potinit      :      0.33s CPU      0.35s WALL (       1 calls)
     hinit0       :      0.36s CPU      0.38s WALL (       1 calls)

     Called by electrons:
     c_bands      :    105.36s CPU    106.99s WALL (      20 calls)
     sum_band     :     13.37s CPU     13.81s WALL (      20 calls)
     v_of_rho     :      0.78s CPU      0.79s WALL (      21 calls)
     newd         :      1.29s CPU      1.52s WALL (      21 calls)
     PAW_pot      :      3.58s CPU      3.65s WALL (      21 calls)
     mix_rho      :      0.92s CPU      0.99s WALL (      20 calls)

     Called by c_bands:
     init_us_2    :      1.60s CPU      1.63s WALL (      86 calls)
     init_us_2:cp :      1.60s CPU      1.63s WALL (      86 calls)
     cegterg      :     88.57s CPU     90.10s WALL (      40 calls)

     Called by *egterg:
     cdiaghg      :      6.02s CPU      6.11s WALL (     205 calls)
     h_psi        :     46.02s CPU     46.69s WALL (     207 calls)
     s_psi        :     11.08s CPU     11.17s WALL (     207 calls)
     g_psi        :      0.16s CPU      0.16s WALL (     165 calls)

     Called by h_psi:
     h_psi:calbec :     13.00s CPU     13.09s WALL (     207 calls)
     vloc_psi     :     21.76s CPU     22.11s WALL (     207 calls)
     add_vuspsi   :     10.93s CPU     11.03s WALL (     207 calls)

     General routines
     calbec       :     20.48s CPU     20.60s WALL (     257 calls)
     fft          :      0.48s CPU      0.49s WALL (     256 calls)
     ffts         :      0.45s CPU      0.46s WALL (     417 calls)
     fftw         :     22.89s CPU     23.27s WALL (   45154 calls)
 
     Parallel routines
 
     PWSCF        :   2m25.72s CPU   2m29.37s WALL

 
   This run was terminated on:  12:33:19  14May2026            

=------------------------------------------------------------------------------=
   JOB DONE.
=------------------------------------------------------------------------------=
