
     Program PWSCF v.7.1 starts on 14May2026 at 12:49:50 

     This program is part of the open-source Quantum ESPRESSO suite
     for quantum simulation of materials; please cite
         "P. Giannozzi et al., J. Phys.:Condens. Matter 21 395502 (2009);
         "P. Giannozzi et al., J. Phys.:Condens. Matter 29 465901 (2017);
         "P. Giannozzi et al., J. Chem. Phys. 152 154105 (2020);
          URL http://www.quantum-espresso.org", 
     in publications or presentations arising from this work. More details at
     http://www.quantum-espresso.org/quote

     Parallel version (MPI & OpenMP), running on      32 processor cores
     Number of MPI processes:                32
     Threads/MPI process:                     1

     MPI processes distributed on     1 nodes
     91031 MiB available memory on the printing compute node when the environment starts
 
     Reading input from TiAlN_x0625optimalvolume829429.in

     Current dimensions of program PWSCF are:
     Max number of different atomic species (ntypx) = 10
     Max number of k-points (npk) = 150000
     Max angular momentum in pseudopotentials (lmaxx) =  4
     file Al.pbe-n-kjpaw_psl.1.0.0.UPF: wavefunction(s)  3S 3P renormalized
     file N.pbe-n-kjpaw_psl.1.0.0.UPF: wavefunction(s)  2S renormalized
     file Ti.pbe-spn-kjpaw_psl.1.0.0.UPF: wavefunction(s)  3S 3P 3D renormalized
 
     K-points division:     npool     =       4
     R & G space division:  proc/nbgrp/npool/nimage =       8
     Subspace diagonalization in iterative solution of the eigenvalue problem:
     one sub-group per band group will be used
     scalapack distributed-memory algorithm (size of sub-group:  2*  2 procs)

 
     Parallelization info
     --------------------
     sticks:   dense  smooth     PW     G-vecs:    dense   smooth      PW
     Min         588     588    160                30220    30220    4306
     Max         590     590    161                30221    30221    4309
     Sum        4709    4709   1281               241761   241761   34457
 
     Using Slab Decomposition
 


     bravais-lattice index     =            0
     lattice parameter (alat)  =      15.6739  a.u.
     unit-cell volume          =    3850.6518 (a.u.)^3
     number of atoms/cell      =           64
     number of atomic types    =            3
     number of electrons       =       364.00
     number of Kohn-Sham states=          218
     kinetic-energy cutoff     =      60.0000  Ry
     charge density cutoff     =     240.0000  Ry
     scf convergence threshold =      1.0E-08
     mixing beta               =       0.2000
     number of iterations used =            8  local-TF  mixing
     Exchange-correlation= SLA  PW   PBX  PBC
                           (   1   4   3   4   0   0   0)

     celldm(1)=  15.673936  celldm(2)=   0.000000  celldm(3)=   0.000000
     celldm(4)=   0.000000  celldm(5)=   0.000000  celldm(6)=   0.000000

     crystal axes: (cart. coord. in units of alat)
               a(1) = (   1.000000   0.000000   0.000000 )  
               a(2) = (   0.000000   1.000000   0.000000 )  
               a(3) = (   0.000000   0.000000   1.000000 )  

     reciprocal axes: (cart. coord. in units 2 pi/alat)
               b(1) = (  1.000000  0.000000  0.000000 )  
               b(2) = (  0.000000  1.000000  0.000000 )  
               b(3) = (  0.000000  0.000000  1.000000 )  


     PseudoPot. # 1 for Al read from file:
     ../../../pseudo/Al.pbe-n-kjpaw_psl.1.0.0.UPF
     MD5 check sum: 502b6b27b9c6270cab5dd1084b96fa6d
     Pseudo is Projector augmented-wave + core cor, Zval =  3.0
     Generated using &quot;atomic&quot; code by A. Dal Corso  v.6.3
     Shape of augmentation charge: PSQ
     Using radial grid of 1135 points,  6 beta functions with: 
                l(1) =   0
                l(2) =   0
                l(3) =   1
                l(4) =   1
                l(5) =   2
                l(6) =   2
     Q(r) pseudized with 0 coefficients 


     PseudoPot. # 2 for N  read from file:
     ../../../pseudo/N.pbe-n-kjpaw_psl.1.0.0.UPF
     MD5 check sum: 14c48229446f9f2d411169a3abcbc3fa
     Pseudo is Projector augmented-wave + core cor, Zval =  5.0
     Generated using &quot;atomic&quot; code by A. Dal Corso  v.6.3
     Shape of augmentation charge: PSQ
     Using radial grid of 1085 points,  4 beta functions with: 
                l(1) =   0
                l(2) =   0
                l(3) =   1
                l(4) =   1
     Q(r) pseudized with 0 coefficients 


     PseudoPot. # 3 for Ti read from file:
     ../../../pseudo/Ti.pbe-spn-kjpaw_psl.1.0.0.UPF
     MD5 check sum: 01f69b0d8ba4438b2e03ac6ea4af1c0b
     Pseudo is Projector augmented-wave + core cor, Zval = 12.0
     Generated using &quot;atomic&quot; code by A. Dal Corso  v.6.2.2
     Shape of augmentation charge: PSQ
     Using radial grid of 1177 points,  6 beta functions with: 
                l(1) =   0
                l(2) =   0
                l(3) =   1
                l(4) =   1
                l(5) =   2
                l(6) =   2
     Q(r) pseudized with 0 coefficients 


     atomic species   valence    mass     pseudopotential
        Al             3.00    26.98200     Al( 1.00)
        N              5.00    14.00700     N ( 1.00)
        Ti            12.00    47.86700     Ti( 1.00)

     No symmetry found



   Cartesian axes

     site n.     atom                  positions (alat units)
         1           Al  tau(   1) = (   0.0035826   0.0046206  -0.0055148  )
         2           N   tau(   2) = (   0.2483401   0.0009596  -0.0067811  )
         3           Ti  tau(   3) = (  -0.0052621   0.2478114   0.2573644  )
         4           N   tau(   4) = (   0.2510057   0.2573176   0.2480047  )
         5           Ti  tau(   5) = (   0.2468482  -0.0004173   0.2533462  )
         6           N   tau(   6) = (   0.0003072  -0.0005391   0.2456332  )
         7           Al  tau(   7) = (   0.2491171   0.2494262  -0.0013557  )
         8           N   tau(   8) = (   0.0022065   0.2475036  -0.0032548  )
         9           Al  tau(   9) = (  -0.0005083  -0.0030453   0.5069404  )
        10           N   tau(  10) = (   0.2417805   0.0047236   0.5076276  )
        11           Ti  tau(  11) = (  -0.0067200   0.2569948   0.7370389  )
        12           N   tau(  12) = (   0.2526720   0.2516391   0.7493046  )
        13           Al  tau(  13) = (   0.2502575  -0.0003303   0.7489919  )
        14           N   tau(  14) = (  -0.0002857  -0.0039382   0.7504628  )
        15           Al  tau(  15) = (   0.2495041   0.2491970   0.5017204  )
        16           N   tau(  16) = (   0.0080048   0.2368667   0.4994023  )
        17           Al  tau(  17) = (   0.0018671   0.4951661  -0.0007553  )
        18           N   tau(  18) = (   0.2488512   0.4971116  -0.0020051  )
        19           Ti  tau(  19) = (   0.0028283   0.7497243   0.2552106  )
        20           N   tau(  20) = (   0.2591654   0.7371830   0.2405390  )
        21           Al  tau(  21) = (   0.2507725   0.4954443   0.2421513  )
        22           N   tau(  22) = (   0.0001387   0.5002938   0.2373432  )
        23           Al  tau(  23) = (   0.2505660   0.7470826  -0.0024876  )
        24           N   tau(  24) = (   0.0055877   0.7511595  -0.0065390  )
        25           Ti  tau(  25) = (  -0.0021958   0.4948214   0.4941422  )
        26           N   tau(  26) = (   0.2478062   0.4908747   0.4986840  )
        27           Al  tau(  27) = (   0.0007296   0.7482036   0.7485430  )
        28           N   tau(  28) = (   0.2514431   0.7456334   0.7523326  )
        29           Al  tau(  29) = (   0.2519871   0.4994537   0.7513320  )
        30           N   tau(  30) = (  -0.0003682   0.5059049   0.7554556  )
        31           Ti  tau(  31) = (   0.2483189   0.7440939   0.4921773  )
        32           N   tau(  32) = (  -0.0061600   0.7554452   0.5089340  )
        33           Al  tau(  33) = (   0.4954256   0.0007788  -0.0031459  )
        34           N   tau(  34) = (   0.7494148   0.0057597  -0.0074092  )
        35           Ti  tau(  35) = (   0.5045379   0.2407792   0.2581349  )
        36           N   tau(  36) = (   0.7462786   0.2617139   0.2371928  )
        37           Ti  tau(  37) = (   0.7490482   0.0052917   0.2538619  )
        38           N   tau(  38) = (   0.4979722  -0.0121155   0.2364872  )
        39           Al  tau(  39) = (   0.7467416   0.2504468  -0.0031299  )
        40           N   tau(  40) = (   0.4960906   0.2485542  -0.0055318  )
        41           Ti  tau(  41) = (   0.5000293   0.0044744   0.4898688  )
        42           N   tau(  42) = (   0.7553786  -0.0068498   0.5092174  )
        43           Al  tau(  43) = (   0.4969176   0.2479707   0.7523327  )
        44           N   tau(  44) = (   0.7406149   0.2530216   0.7537284  )
        45           Al  tau(  45) = (   0.7455575  -0.0024164   0.7482269  )
        46           N   tau(  46) = (   0.4984935  -0.0017956   0.7542404  )
        47           Ti  tau(  47) = (   0.7443642   0.2500441   0.4924729  )
        48           N   tau(  48) = (   0.4884370   0.2478932   0.5111792  )
        49           Al  tau(  49) = (   0.4976240   0.4966862  -0.0005002  )
        50           N   tau(  50) = (   0.7486024   0.4962388  -0.0014455  )
        51           Al  tau(  51) = (   0.4986138   0.7448206   0.2458742  )
        52           N   tau(  52) = (   0.7397419   0.7390582   0.2568297  )
        53           Al  tau(  53) = (   0.7465296   0.5000177   0.2441818  )
        54           N   tau(  54) = (   0.4989635   0.5034434   0.2407876  )
        55           Ti  tau(  55) = (   0.7543574   0.7540000   0.0089187  )
        56           N   tau(  56) = (   0.4962837   0.7471906  -0.0025594  )
        57           Ti  tau(  57) = (   0.5004670   0.4925327   0.4943682  )
        58           N   tau(  58) = (   0.7477869   0.5052538   0.4999186  )
        59           Al  tau(  59) = (   0.4982961   0.7485413   0.7492385  )
        60           N   tau(  60) = (   0.7457009   0.7460956   0.7461908  )
        61           Al  tau(  61) = (   0.7437371   0.5031017   0.7517598  )
        62           N   tau(  62) = (   0.4983436   0.5003007   0.7543445  )
        63           Al  tau(  63) = (   0.7462133   0.7476182   0.5019416  )
        64           N   tau(  64) = (   0.5037304   0.7476449   0.5009174  )

     number of k points=     8  Gaussian smearing, width (Ry)=  0.0050
                       cart. coord. in units 2pi/alat
        k(    1) = (   0.0000000   0.0000000   0.0000000), wk =   0.2500000
        k(    2) = (   0.0000000   0.0000000  -0.5000000), wk =   0.2500000
        k(    3) = (   0.0000000  -0.5000000  -0.5000000), wk =   0.2500000
        k(    4) = (  -0.5000000  -0.5000000  -0.5000000), wk =   0.2500000
        k(    5) = (  -0.5000000   0.0000000   0.0000000), wk =   0.2500000
        k(    6) = (   0.0000000  -0.5000000   0.0000000), wk =   0.2500000
        k(    7) = (  -0.5000000   0.0000000   0.5000000), wk =   0.2500000
        k(    8) = (  -0.5000000   0.5000000   0.0000000), wk =   0.2500000

     Dense  grid:   241761 G-vectors     FFT dimensions: (  80,  80,  80)

     Estimated max dynamical RAM per process >     188.51 MB

     Estimated total dynamical RAM >       5.72 GB

     Check: negative core charge=   -0.000017

     Initial potential from superposition of free atoms

     starting charge     363.9362, renormalised to     364.0000
     Starting wfcs are  328 randomized atomic wfcs
     Checking if some PAW data can be deallocated... 

     total cpu time spent up to now is        3.8 secs

     Self-consistent Calculation

     iteration #  1     ecut=    60.00 Ry     beta= 0.20
     Davidson diagonalization with overlap
     ethr =  1.00E-02,  avg # of iterations =  2.0

     total cpu time spent up to now is        9.5 secs

     total energy              =   -3905.50997260 Ry
     estimated scf accuracy    <      17.43467007 Ry

     iteration #  2     ecut=    60.00 Ry     beta= 0.20
     Davidson diagonalization with overlap
     ethr =  4.79E-03,  avg # of iterations =  1.0

     total cpu time spent up to now is       14.2 secs

     total energy              =   -3901.34563434 Ry
     estimated scf accuracy    <       9.81390557 Ry

     iteration #  3     ecut=    60.00 Ry     beta= 0.20
     Davidson diagonalization with overlap
     ethr =  2.70E-03,  avg # of iterations =  2.4

     total cpu time spent up to now is       20.5 secs

     total energy              =   -3903.56342689 Ry
     estimated scf accuracy    <       0.56631347 Ry

     iteration #  4     ecut=    60.00 Ry     beta= 0.20
     Davidson diagonalization with overlap
     ethr =  1.56E-04,  avg # of iterations =  8.8

     total cpu time spent up to now is       27.8 secs

     total energy              =   -3903.61608564 Ry
     estimated scf accuracy    <       0.44448114 Ry

     iteration #  5     ecut=    60.00 Ry     beta= 0.20
     Davidson diagonalization with overlap
     ethr =  1.22E-04,  avg # of iterations =  1.0

     total cpu time spent up to now is       32.5 secs

     total energy              =   -3903.57034903 Ry
     estimated scf accuracy    <       0.25198054 Ry

     iteration #  6     ecut=    60.00 Ry     beta= 0.20
     Davidson diagonalization with overlap
     ethr =  6.92E-05,  avg # of iterations =  1.0

     total cpu time spent up to now is       37.1 secs

     total energy              =   -3903.57102546 Ry
     estimated scf accuracy    <       0.04618105 Ry

     iteration #  7     ecut=    60.00 Ry     beta= 0.20
     Davidson diagonalization with overlap
     ethr =  1.27E-05,  avg # of iterations =  5.1

     total cpu time spent up to now is       43.9 secs

     total energy              =   -3903.57486544 Ry
     estimated scf accuracy    <       0.01446160 Ry

     iteration #  8     ecut=    60.00 Ry     beta= 0.20
     Davidson diagonalization with overlap
     ethr =  3.97E-06,  avg # of iterations =  2.0

     total cpu time spent up to now is       49.2 secs

     total energy              =   -3903.57474017 Ry
     estimated scf accuracy    <       0.00565495 Ry

     iteration #  9     ecut=    60.00 Ry     beta= 0.20
     Davidson diagonalization with overlap
     ethr =  1.55E-06,  avg # of iterations =  6.6

     total cpu time spent up to now is       56.1 secs

     total energy              =   -3903.57521505 Ry
     estimated scf accuracy    <       0.00249264 Ry

     iteration # 10     ecut=    60.00 Ry     beta= 0.20
     Davidson diagonalization with overlap
     ethr =  6.85E-07,  avg # of iterations =  2.0

     total cpu time spent up to now is       61.4 secs

     total energy              =   -3903.57517851 Ry
     estimated scf accuracy    <       0.00093948 Ry

     iteration # 11     ecut=    60.00 Ry     beta= 0.20
     Davidson diagonalization with overlap
     ethr =  2.58E-07,  avg # of iterations =  5.0

     total cpu time spent up to now is       67.3 secs

     total energy              =   -3903.57516350 Ry
     estimated scf accuracy    <       0.00029263 Ry

     iteration # 12     ecut=    60.00 Ry     beta= 0.20
     Davidson diagonalization with overlap
     ethr =  8.04E-08,  avg # of iterations =  8.6

     total cpu time spent up to now is       76.2 secs

     total energy              =   -3903.57522392 Ry
     estimated scf accuracy    <       0.00007377 Ry

     iteration # 13     ecut=    60.00 Ry     beta= 0.20
     Davidson diagonalization with overlap
     ethr =  2.03E-08,  avg # of iterations =  3.1

     total cpu time spent up to now is       82.8 secs

     total energy              =   -3903.57523321 Ry
     estimated scf accuracy    <       0.00001149 Ry

     iteration # 14     ecut=    60.00 Ry     beta= 0.20
     Davidson diagonalization with overlap
     ethr =  3.16E-09,  avg # of iterations =  6.6

     total cpu time spent up to now is       90.5 secs

     total energy              =   -3903.57523218 Ry
     estimated scf accuracy    <       0.00000785 Ry

     iteration # 15     ecut=    60.00 Ry     beta= 0.20
     Davidson diagonalization with overlap
     ethr =  2.16E-09,  avg # of iterations =  2.0

     total cpu time spent up to now is       96.1 secs

     total energy              =   -3903.57523167 Ry
     estimated scf accuracy    <       0.00000287 Ry

     iteration # 16     ecut=    60.00 Ry     beta= 0.20
     Davidson diagonalization with overlap
     ethr =  7.90E-10,  avg # of iterations =  2.2

     total cpu time spent up to now is      102.2 secs

     total energy              =   -3903.57523198 Ry
     estimated scf accuracy    <       0.00000049 Ry

     iteration # 17     ecut=    60.00 Ry     beta= 0.20
     Davidson diagonalization with overlap
     ethr =  1.34E-10,  avg # of iterations =  3.1

     total cpu time spent up to now is      108.6 secs

     total energy              =   -3903.57523197 Ry
     estimated scf accuracy    <       0.00000024 Ry

     iteration # 18     ecut=    60.00 Ry     beta= 0.20
     Davidson diagonalization with overlap
     ethr =  6.69E-11,  avg # of iterations =  2.2

     total cpu time spent up to now is      114.2 secs

     total energy              =   -3903.57523197 Ry
     estimated scf accuracy    <       0.00000010 Ry

     iteration # 19     ecut=    60.00 Ry     beta= 0.20
     Davidson diagonalization with overlap
     ethr =  2.74E-11,  avg # of iterations =  3.1

     total cpu time spent up to now is      120.3 secs

     total energy              =   -3903.57523198 Ry
     estimated scf accuracy    <       0.00000002 Ry

     iteration # 20     ecut=    60.00 Ry     beta= 0.20
     Davidson diagonalization with overlap
     ethr =  6.71E-12,  avg # of iterations =  5.2

     total cpu time spent up to now is      126.7 secs

     total energy              =   -3903.57523199 Ry
     estimated scf accuracy    <       0.00000001 Ry

     iteration # 21     ecut=    60.00 Ry     beta= 0.20
     Davidson diagonalization with overlap
     ethr =  3.48E-12,  avg # of iterations =  1.8

     total cpu time spent up to now is      131.9 secs

     End of self-consistent calculation

          k = 0.0000 0.0000 0.0000 ( 30215 PWs)   bands (ev):

   -43.9062 -43.5851 -43.4301 -43.4048 -43.3321 -43.1485 -43.1170 -43.1055
   -43.0888 -43.0147 -42.9915 -42.9208 -20.2917 -20.2160 -20.1681 -20.0117
   -19.9532 -19.9226 -19.8739 -19.8554 -19.8311 -19.8184 -19.7793 -19.7521
   -19.7122 -19.6889 -19.6548 -19.6518 -19.6052 -19.5904 -19.5750 -19.5655
   -19.5150 -19.5099 -19.4498 -19.4368 -19.4013 -19.3787 -19.3689 -19.3403
   -19.3329 -19.2865 -19.2730 -19.2412 -19.2086 -19.1873 -19.1711 -19.1022
    -4.0700  -2.8689  -2.7438  -2.6700  -2.5752  -2.5254  -2.4695  -1.7450
    -1.7230  -1.6196  -1.5413  -1.5227  -1.4837  -1.4095  -1.3814  -1.3507
    -1.3413  -1.2737  -1.1480  -1.1129  -1.0813  -1.0001  -0.9681  -0.9537
    -0.8592  -0.8177  -0.6396  -0.5328  -0.4933  -0.4601  -0.4182  -0.3932
     4.7263   4.9826   5.1015   5.3252   6.2338   6.2475   6.3687   6.4280
     6.4533   6.5308   6.6535   6.7351   6.7864   6.8533   6.9756   7.0891
     7.1386   7.2159   7.3302   7.3423   7.4139   7.4342   7.5178   7.5376
     7.6406   7.7091   7.7419   7.7785   7.8688   7.9347   8.0304   8.1308
     8.2228   8.3403   8.3921   8.4554   8.5226   8.6099   8.6528   8.7389
     8.8300   8.8759   8.9323   8.9587   8.9807   9.0370   9.0677   9.1190
     9.1618   9.2616   9.3193   9.3469   9.4707   9.5455   9.6442   9.7795
     9.9308   9.9699  10.0423  10.0879  10.1549  10.1793  10.2379  10.3118
    10.3151  10.3603  10.3741  10.4320  10.4577  10.5025  10.5385  10.6015
    10.8070  10.8475  10.8745  10.9708  10.9918  11.0598  11.0759  11.1063
    11.1203  11.1390  11.1747  11.2035  11.2404  11.2530  11.3364  11.4020
    11.4515  11.4732  11.4897  11.5244  11.5549  12.4840  12.4977  12.5357
    12.5433  12.9301  12.9655  13.6908  13.7456  13.7848  14.1288  14.2230
    14.8234  14.8692  15.0680  15.2226  15.4905  15.5042  15.6228  15.7496
    15.8187  15.8333  15.9351  16.0257  16.0361  16.1120  16.1664  16.1810
    16.2478  16.2761  16.2897  16.3872  16.4459  16.5366  16.5746  16.5977
    16.6227  16.6722  16.7140  16.7194  16.7717  16.7990  16.8069  16.8907
    16.9384  16.9862

          k = 0.0000 0.0000-0.5000 ( 30254 PWs)   bands (ev):

   -43.9062 -43.5851 -43.4301 -43.4048 -43.3321 -43.1485 -43.1170 -43.1055
   -43.0889 -43.0147 -42.9915 -42.9208 -20.2917 -20.2161 -20.1681 -20.0117
   -19.9531 -19.9226 -19.8731 -19.8554 -19.8314 -19.8183 -19.7792 -19.7521
   -19.7121 -19.6889 -19.6548 -19.6518 -19.6052 -19.5904 -19.5750 -19.5654
   -19.5163 -19.5097 -19.4498 -19.4368 -19.4013 -19.3787 -19.3694 -19.3404
   -19.3330 -19.2861 -19.2729 -19.2412 -19.2084 -19.1872 -19.1713 -19.1020
    -3.8188  -3.4704  -2.5552  -2.5201  -2.4633  -2.3755  -2.3010  -2.1717
    -1.9372  -1.8769  -1.7007  -1.5052  -1.4781  -1.4445  -1.3109  -1.2441
    -1.2398  -1.2197  -1.1104  -1.1052  -1.0789  -0.9669  -0.9222  -0.7949
    -0.7400  -0.6947  -0.6218  -0.6107  -0.5579  -0.5075  -0.4378  -0.4113
     5.3059   5.4451   5.4801   5.6553   5.7331   5.8154   6.0279   6.0710
     6.2562   6.2721   6.5347   6.6278   6.6738   6.8328   6.9913   7.0016
     7.0688   7.1628   7.2469   7.2635   7.3420   7.4561   7.5173   7.5918
     7.6454   7.6588   7.7624   7.8057   7.8582   7.9006   7.9733   8.1032
     8.1326   8.1351   8.2922   8.3366   8.4678   8.5637   8.9557   8.9765
     9.0060   9.0596   9.1008   9.1174   9.1373   9.2075   9.2995   9.3935
     9.4926   9.5438   9.5901   9.6475   9.7655   9.7991   9.8488   9.9074
     9.9274   9.9639   9.9855  10.0376  10.0511  10.0836  10.1506  10.1626
    10.2364  10.2722  10.2917  10.3405  10.4004  10.4269  10.4527  10.5172
    10.5632  10.6173  10.6631  10.6842  10.7654  10.8230  10.9717  11.0038
    11.0191  11.0467  11.1212  11.1771  11.2174  11.3360  11.3981  11.4242
    11.4503  11.4697  11.4959  11.5381  11.9178  11.9513  12.0014  12.0156
    12.5540  13.5769  13.6225  13.6991  14.1461  14.3009  14.4774  14.5249
    14.8242  14.9385  15.0247  15.1810  15.3035  15.4164  15.4651  15.4879
    15.5407  15.7754  15.8220  15.8462  15.9678  15.9961  16.1079  16.1627
    16.1919  16.2184  16.2651  16.3121  16.4045  16.4767  16.5254  16.6025
    16.6240  16.6847  16.7023  16.7882  16.8372  16.8739  16.9505  17.0160
    17.0375  17.1397

          k = 0.0000-0.5000-0.5000 ( 30168 PWs)   bands (ev):

   -43.9062 -43.5851 -43.4300 -43.4049 -43.3321 -43.1483 -43.1163 -43.1081
   -43.0871 -43.0148 -42.9915 -42.9208 -20.2917 -20.2160 -20.1681 -20.0116
   -19.9522 -19.9183 -19.8678 -19.8548 -19.8312 -19.8218 -19.7810 -19.7490
   -19.7188 -19.6912 -19.6727 -19.6498 -19.6076 -19.5886 -19.5698 -19.5659
   -19.5231 -19.4803 -19.4590 -19.4353 -19.4095 -19.3858 -19.3645 -19.3319
   -19.3260 -19.2887 -19.2689 -19.2470 -19.2053 -19.1934 -19.1711 -19.1032
    -3.5010  -3.4034  -3.1586  -2.9661  -2.2493  -2.1195  -2.0828  -2.0627
    -1.9499  -1.8470  -1.8309  -1.7370  -1.4617  -1.4114  -1.3682  -1.3086
    -1.2241  -1.0954  -1.0774  -1.0576  -0.9879  -0.9244  -0.8259  -0.7881
    -0.7674  -0.7030  -0.6818  -0.6130  -0.5888  -0.5365  -0.4572  -0.4203
     5.3428   5.5143   5.5881   5.7672   5.8909   6.0726   6.2358   6.3992
     6.4356   6.4832   6.4986   6.5771   6.6270   6.6615   6.7328   6.8229
     6.8471   6.9246   6.9642   7.0273   7.0661   7.1792   7.2277   7.2816
     7.3702   7.5420   7.6136   7.8256   7.8485   7.9680   8.0350   8.1755
     8.2434   8.4791   8.6044   8.7240   8.7529   8.9043   8.9611   8.9756
     9.0133   9.0705   9.1074   9.1670   9.1886   9.3187   9.3554   9.3775
     9.4046   9.4433   9.5410   9.5516   9.6110   9.6291   9.6858   9.7547
     9.9076   9.9385   9.9508  10.0293  10.0937  10.1557  10.1780  10.2568
    10.3061  10.3319  10.4101  10.4281  10.5025  10.5475  10.5634  10.5748
    10.6298  10.6603  10.7185  10.8003  10.8727  10.9183  10.9448  10.9900
    11.0304  11.0702  11.0813  11.1091  11.1668  11.1901  11.2035  11.2725
    11.3229  11.3725  11.3908  11.4068  11.6257  11.7139  11.9371  11.9956
    13.5253  13.7205  13.8718  14.0337  14.0921  14.1854  14.5436  14.5898
    14.7633  14.8463  14.9918  15.0378  15.2030  15.2670  15.3216  15.3839
    15.3922  15.4680  15.6206  15.7296  15.8259  15.9461  15.9984  16.0323
    16.0766  16.1093  16.3162  16.3852  16.4218  16.4736  16.5402  16.5882
    16.6126  16.6922  16.7720  16.8247  16.8697  17.0525  17.1508  17.2442
    17.3013  17.4103

          k =-0.5000-0.5000-0.5000 ( 30280 PWs)   bands (ev):

   -43.9062 -43.5851 -43.4300 -43.4049 -43.3320 -43.1490 -43.1144 -43.1092
   -43.0872 -43.0148 -42.9915 -42.9208 -20.2917 -20.2160 -20.1680 -20.0118
   -19.9530 -19.9177 -19.8639 -19.8550 -19.8409 -19.8178 -19.7761 -19.7490
   -19.7062 -19.7002 -19.6692 -19.6463 -19.6112 -19.5946 -19.5791 -19.5454
   -19.5264 -19.5180 -19.4476 -19.4340 -19.4026 -19.3681 -19.3557 -19.3526
   -19.3244 -19.2910 -19.2679 -19.2513 -19.2093 -19.1867 -19.1701 -19.1027
    -3.2476  -3.1374  -3.0184  -2.9859  -2.8391  -2.7139  -2.5442  -2.4348
    -1.5573  -1.5422  -1.4463  -1.4102  -1.2724  -1.2623  -1.2173  -1.1555
    -1.1304  -1.0896  -1.0288  -0.9977  -0.9646  -0.9046  -0.8921  -0.8671
    -0.8503  -0.8119  -0.7520  -0.7093  -0.6884  -0.6694  -0.5850  -0.5367
     5.7532   5.7849   5.8325   5.9108   5.9483   5.9934   6.0209   6.1199
     6.1937   6.2258   6.2484   6.4283   6.4721   6.5191   6.6462   6.7406
     6.7929   6.8603   6.8972   7.0908   7.1258   7.1502   7.2523   7.5214
     7.9540   7.9955   8.0866   8.1995   8.2394   8.2630   8.3694   8.3747
     8.4272   8.4724   8.5076   8.6003   8.6616   8.7045   8.7771   8.8208
     8.8571   8.8952   8.9112   8.9275   8.9870   9.0359   9.0701   9.1213
     9.1849   9.2169   9.3301   9.3784   9.3903   9.4583   9.6161   9.7874
     9.8061   9.8264   9.8581   9.9544  10.0262  10.1071  10.1623  10.2103
    10.2978  10.3173  10.3440  10.3740  10.4063  10.4615  10.5135  10.6253
    10.6494  10.6700  10.7463  10.8211  10.9642  10.9905  11.0944  11.1218
    11.1373  11.1827  11.2280  11.2664  11.3123  11.3773  11.4132  11.4762
    11.5313  11.5949  11.6240  11.6692  11.7047  11.8126  11.8403  11.8667
    13.8399  13.9502  14.0484  14.2183  14.2605  14.2947  14.3539  14.4504
    14.6012  14.6172  14.6929  14.8976  14.9503  15.1002  15.2216  15.2936
    15.3272  15.3776  15.4718  15.5103  15.5855  15.7000  15.7782  15.8376
    15.9433  15.9694  16.3070  16.3584  16.4733  16.5586  16.6289  16.6655
    16.7892  16.8419  16.8928  16.9452  17.2619  17.3665  17.4054  17.4476
    17.5763  17.5984

          k =-0.5000 0.0000 0.0000 ( 30254 PWs)   bands (ev):

   -43.9062 -43.5851 -43.4301 -43.4048 -43.3321 -43.1494 -43.1149 -43.1068
   -43.0889 -43.0147 -42.9915 -42.9208 -20.2917 -20.2160 -20.1681 -20.0117
   -19.9522 -19.9195 -19.8643 -19.8551 -19.8422 -19.8123 -19.7764 -19.7511
   -19.7096 -19.7015 -19.6569 -19.6567 -19.6156 -19.6012 -19.5824 -19.5454
   -19.5217 -19.5002 -19.4496 -19.4320 -19.4035 -19.3722 -19.3612 -19.3440
   -19.3276 -19.2844 -19.2756 -19.2452 -19.2098 -19.1893 -19.1701 -19.1047
    -3.7471  -3.5918  -2.6239  -2.5043  -2.4259  -2.3729  -2.1963  -2.0892
    -2.0491  -1.8808  -1.7099  -1.5699  -1.4151  -1.2986  -1.2769  -1.2619
    -1.2312  -1.1601  -1.0680  -1.0497  -1.0184  -0.9952  -0.8975  -0.8518
    -0.7941  -0.7218  -0.6787  -0.6396  -0.6110  -0.5712  -0.5356  -0.4121
     5.3439   5.4293   5.4463   5.6191   5.6740   5.8074   5.9991   6.2276
     6.3726   6.4163   6.5453   6.5904   6.6203   6.7685   6.8184   6.8367
     6.8807   7.0453   7.0913   7.2203   7.3703   7.4257   7.5197   7.5710
     7.6650   7.7348   7.7814   7.8623   7.9532   8.0011   8.1040   8.1555
     8.1955   8.2319   8.3389   8.4006   8.5033   8.5497   9.0799   9.0915
     9.1239   9.1459   9.2204   9.2501   9.2827   9.3127   9.4357   9.5703
     9.6084   9.6572   9.7015   9.7225   9.7553   9.7952   9.8063   9.8439
     9.8974   9.9438   9.9762   9.9993  10.0617  10.0676  10.1373  10.1999
    10.2225  10.2444  10.2998  10.3288  10.3688  10.3963  10.4328  10.5387
    10.5594  10.6164  10.6369  10.6547  10.7203  10.7438  10.7770  10.8339
    10.8908  10.9570  10.9939  11.0174  11.0837  11.1450  11.2029  11.2303
    11.2846  11.4104  11.4699  11.5486  11.9364  11.9725  11.9773  12.0679
    13.0814  13.3443  13.7868  13.8981  14.0298  14.2317  14.4671  14.5149
    14.7170  14.7595  14.8858  15.0436  15.1025  15.2398  15.3687  15.4040
    15.5919  15.6384  15.8041  15.8654  15.9383  15.9884  16.0041  16.1283
    16.2255  16.2668  16.3971  16.4729  16.5469  16.5562  16.5990  16.6319
    16.6740  16.6924  16.7426  16.7740  16.8237  16.8793  16.9412  16.9550
    17.1716  17.2714

          k = 0.0000-0.5000 0.0000 ( 30254 PWs)   bands (ev):

   -43.9062 -43.5851 -43.4300 -43.4049 -43.3321 -43.1483 -43.1163 -43.1081
   -43.0871 -43.0148 -42.9915 -42.9208 -20.2917 -20.2160 -20.1681 -20.0116
   -19.9522 -19.9184 -19.8686 -19.8548 -19.8313 -19.8218 -19.7809 -19.7490
   -19.7188 -19.6912 -19.6727 -19.6499 -19.6077 -19.5886 -19.5698 -19.5655
   -19.5231 -19.4799 -19.4589 -19.4353 -19.4091 -19.3858 -19.3643 -19.3319
   -19.3258 -19.2891 -19.2690 -19.2470 -19.2057 -19.1934 -19.1710 -19.1034
    -3.7363  -3.6144  -2.5860  -2.4667  -2.4513  -2.3048  -2.2523  -2.0973
    -2.0193  -1.9914  -1.6455  -1.6132  -1.3743  -1.3580  -1.2848  -1.2457
    -1.2292  -1.2126  -1.1346  -1.0592  -1.0514  -0.9558  -0.8900  -0.8606
    -0.7466  -0.7217  -0.6458  -0.6423  -0.6201  -0.5480  -0.4649  -0.4086
     5.2038   5.4374   5.5744   5.6537   5.7740   5.8270   6.1147   6.1781
     6.4196   6.4679   6.5851   6.6345   6.6536   6.6883   6.7916   6.8565
     6.9045   6.9709   7.1790   7.2078   7.3040   7.4030   7.4677   7.5018
     7.5392   7.6506   7.7329   7.7802   7.8777   7.9589   8.0331   8.1020
     8.2302   8.3117   8.3491   8.4313   8.4978   8.7322   8.9457   9.0486
     9.0666   9.1157   9.1479   9.1962   9.2385   9.2948   9.3277   9.3605
     9.4870   9.5634   9.7026   9.7273   9.8068   9.8227   9.8357   9.8955
     9.9268   9.9672  10.0088  10.0481  10.1068  10.1249  10.1371  10.1740
    10.1899  10.2781  10.3334  10.3708  10.3934  10.4990  10.5329  10.5452
    10.5716  10.5842  10.6306  10.6958  10.7457  10.7920  10.8324  10.9187
    10.9630  10.9953  11.0310  11.0638  11.0963  11.1638  11.2213  11.2887
    11.3542  11.4063  11.4714  11.5460  11.9417  11.9615  12.0173  12.0445
    13.0163  13.4713  13.6117  13.8619  14.0714  14.1176  14.5365  14.5462
    14.5628  14.8418  14.9896  15.0024  15.2317  15.3508  15.4332  15.5516
    15.5996  15.6877  15.7643  15.8370  15.9711  15.9948  16.1107  16.1304
    16.1480  16.2098  16.3574  16.3832  16.4857  16.5058  16.5649  16.6466
    16.6780  16.7030  16.7193  16.7785  16.7934  16.8788  16.9193  16.9644
    17.0605  17.1342

          k =-0.5000 0.0000 0.5000 ( 30168 PWs)   bands (ev):

   -43.9062 -43.5851 -43.4301 -43.4048 -43.3321 -43.1494 -43.1149 -43.1068
   -43.0889 -43.0147 -42.9915 -42.9208 -20.2917 -20.2160 -20.1680 -20.0117
   -19.9521 -19.9195 -19.8637 -19.8551 -19.8422 -19.8122 -19.7763 -19.7511
   -19.7095 -19.7015 -19.6569 -19.6568 -19.6156 -19.6012 -19.5824 -19.5459
   -19.5215 -19.5006 -19.4496 -19.4321 -19.4038 -19.3729 -19.3611 -19.3439
   -19.3276 -19.2841 -19.2755 -19.2452 -19.2095 -19.1893 -19.1702 -19.1045
    -3.5284  -3.3455  -3.1315  -3.0412  -2.2153  -2.1328  -2.0997  -2.0800
    -1.9616  -1.8625  -1.8285  -1.7699  -1.4519  -1.3345  -1.2994  -1.2283
    -1.1931  -1.1233  -1.0594  -1.0162  -0.9792  -0.9264  -0.8849  -0.8011
    -0.7764  -0.7160  -0.6865  -0.6795  -0.5969  -0.5345  -0.5256  -0.4159
     5.3721   5.4915   5.6069   5.8094   5.8789   6.0434   6.2172   6.3104
     6.3175   6.4050   6.4338   6.5027   6.5614   6.5698   6.6766   6.8030
     6.8463   6.9822   6.9922   7.1235   7.1668   7.1926   7.3685   7.4027
     7.4482   7.4800   7.6064   7.6752   7.8777   8.0231   8.2110   8.2284
     8.4858   8.5654   8.6800   8.7133   8.8260   8.8994   8.9757   9.0095
     9.0360   9.0607   9.0978   9.1399   9.2067   9.3520   9.4081   9.4476
     9.4852   9.4915   9.5781   9.6302   9.6412   9.6558   9.6726   9.7547
     9.8889   9.9116   9.9932  10.0304  10.0379  10.1060  10.1273  10.1791
    10.2246  10.2614  10.3244  10.3653  10.3958  10.4277  10.4629  10.5424
    10.5747  10.6654  10.7444  10.7881  10.8472  10.8804  10.9045  10.9362
    10.9595  11.0292  11.0539  11.1114  11.1300  11.1998  11.2348  11.2712
    11.3393  11.3589  11.3645  11.4072  11.6544  11.7245  11.8721  12.0645
    13.7212  13.8144  13.8705  13.9551  14.0408  14.2407  14.5174  14.5868
    14.7202  14.8679  14.8903  15.0519  15.1121  15.1696  15.2569  15.3358
    15.4045  15.4694  15.5499  15.5775  15.8101  15.9089  16.0316  16.0562
    16.1087  16.2328  16.2794  16.3800  16.5046  16.5363  16.6079  16.6346
    16.6667  16.7085  16.7574  16.7889  16.8528  16.9449  17.0865  17.3081
    17.3474  17.4392

          k =-0.5000 0.5000 0.0000 ( 30168 PWs)   bands (ev):

   -43.9062 -43.5851 -43.4299 -43.4049 -43.3320 -43.1490 -43.1144 -43.1092
   -43.0872 -43.0148 -42.9915 -42.9208 -20.2917 -20.2160 -20.1680 -20.0118
   -19.9530 -19.9177 -19.8648 -19.8550 -19.8409 -19.8177 -19.7759 -19.7490
   -19.7062 -19.7002 -19.6691 -19.6463 -19.6112 -19.5946 -19.5791 -19.5455
   -19.5265 -19.5169 -19.4472 -19.4340 -19.4026 -19.3677 -19.3557 -19.3525
   -19.3243 -19.2915 -19.2679 -19.2513 -19.2096 -19.1868 -19.1700 -19.1029
    -3.4510  -3.2977  -3.2575  -3.1656  -2.1851  -2.1050  -2.0319  -1.9891
    -1.9483  -1.8706  -1.7279  -1.6984  -1.4796  -1.3480  -1.3098  -1.2631
    -1.2462  -1.2217  -1.0947  -0.9979  -0.9311  -0.9001  -0.8418  -0.8193
    -0.7956  -0.7633  -0.6900  -0.6461  -0.5981  -0.5909  -0.5152  -0.4845
     5.3613   5.4600   5.6663   5.8183   5.8803   5.9624   6.0668   6.1086
     6.5342   6.5402   6.5619   6.6473   6.6933   6.7177   6.7752   6.7953
     6.8373   6.8825   6.9883   7.0583   7.1056   7.1551   7.2233   7.2961
     7.3632   7.4242   7.4866   7.6663   7.8152   8.0382   8.0651   8.1937
     8.5637   8.6564   8.7205   8.7474   8.8600   8.8862   8.9547   9.0380
     9.1198   9.1628   9.2265   9.3734   9.4269   9.4341   9.4513   9.4814
     9.5073   9.5643   9.6002   9.6505   9.7165   9.7323   9.7558   9.8211
     9.8711   9.9141   9.9547   9.9787  10.0304  10.0567  10.0968  10.1120
    10.1945  10.2135  10.2705  10.3269  10.3598  10.4109  10.4528  10.4847
    10.5181  10.5608  10.5904  10.6251  10.7818  10.8045  10.8663  10.8792
    10.9276  10.9489  11.0268  11.0531  11.0859  11.1067  11.1380  11.2974
    11.3219  11.3723  11.4197  11.5419  11.7693  11.8050  11.9746  11.9923
    13.7596  13.9336  14.0186  14.1443  14.2959  14.3229  14.3796  14.4441
    14.6009  14.6289  14.6644  14.9452  14.9928  15.1506  15.3054  15.3976
    15.4370  15.4992  15.5436  15.6233  15.7104  15.8057  15.8447  15.9754
    16.0992  16.1961  16.2764  16.5052  16.5099  16.5629  16.6313  16.7074
    16.7511  16.7982  16.8289  16.9162  16.9798  17.0054  17.1611  17.2193
    17.3195  17.3783

     the Fermi energy is    14.3078 ev

!    total energy              =   -3903.57523199 Ry
     total all-electron energy =    -33715.067298 Ry
     estimated scf accuracy    <          5.0E-09 Ry
     smearing contrib. (-TS)   =      -0.00232333 Ry
     internal energy E=F+TS    =   -3903.57290866 Ry

     The total energy is F=E-TS. E is the sum of the following terms:
     one-electron contribution =    -667.79087562 Ry
     hartree contribution      =     576.59919617 Ry
     xc contribution           =    -465.78593152 Ry
     ewald contribution        =   -1614.30164700 Ry
     one-center paw contrib.   =   -1732.29365069 Ry

     convergence has been achieved in  21 iterations

     Forces acting on atoms (cartesian axes, Ry/au):

     atom    1 type  1   force =    -0.00399200   -0.00365696   -0.00587040
     atom    2 type  2   force =     0.00006033   -0.00464784   -0.00695464
     atom    3 type  3   force =    -0.00892059    0.00093527   -0.00113888
     atom    4 type  2   force =    -0.00214922   -0.00122592    0.00069048
     atom    5 type  3   force =     0.00088372   -0.00548250    0.00021174
     atom    6 type  2   force =    -0.00814016   -0.00920230    0.00045339
     atom    7 type  1   force =     0.00041348    0.00040495   -0.00584889
     atom    8 type  2   force =    -0.00425437    0.00026457   -0.00643659
     atom    9 type  1   force =    -0.00624407   -0.00733865   -0.00048138
     atom   10 type  2   force =    -0.00126453   -0.00572609   -0.00077531
     atom   11 type  3   force =    -0.00719901   -0.00022912    0.00739889
     atom   12 type  2   force =    -0.00070416    0.00008546    0.00367204
     atom   13 type  1   force =    -0.00012481   -0.00363010    0.00616232
     atom   14 type  2   force =    -0.00412396   -0.00655651    0.00709440
     atom   15 type  1   force =    -0.00042975   -0.00124361   -0.00018602
     atom   16 type  2   force =    -0.00613628   -0.00044122    0.00130908
     atom   17 type  1   force =    -0.00293726    0.00085462   -0.00603016
     atom   18 type  2   force =     0.00027604   -0.00050092   -0.00621527
     atom   19 type  3   force =    -0.00564163    0.00645902   -0.00011798
     atom   20 type  2   force =    -0.00046177    0.00577941    0.00076279
     atom   21 type  1   force =     0.00004187   -0.00019667   -0.00045251
     atom   22 type  2   force =    -0.00409031    0.00165291    0.00016481
     atom   23 type  1   force =    -0.00063058    0.00276371   -0.00553477
     atom   24 type  2   force =    -0.00623187    0.00472075   -0.00742919
     atom   25 type  3   force =    -0.00819104    0.00203717   -0.00043582
     atom   26 type  2   force =    -0.00209318   -0.00009552   -0.00076822
     atom   27 type  1   force =    -0.00313871    0.00594034    0.00615508
     atom   28 type  2   force =     0.00050105    0.00430383    0.00689916
     atom   29 type  1   force =    -0.00025970   -0.00026330    0.00596386
     atom   30 type  2   force =    -0.00408524    0.00077500    0.00718220
     atom   31 type  3   force =    -0.00096795    0.00445300    0.00006749
     atom   32 type  2   force =    -0.00607620    0.00949738    0.00058824
     atom   33 type  1   force =     0.00083332   -0.00298121   -0.00668780
     atom   34 type  2   force =     0.00453682   -0.00653130   -0.00692612
     atom   35 type  3   force =     0.00001644   -0.00023633   -0.00067483
     atom   36 type  2   force =     0.00916869   -0.00076714    0.00084025
     atom   37 type  3   force =     0.00737720   -0.00481393    0.00022922
     atom   38 type  2   force =     0.00136117   -0.00720372    0.00088308
     atom   39 type  1   force =     0.00275160   -0.00034433   -0.00625886
     atom   40 type  2   force =    -0.00011939    0.00003390   -0.00796234
     atom   41 type  3   force =     0.00151491   -0.00636723    0.00091962
     atom   42 type  2   force =     0.00821142   -0.00714742    0.00018950
     atom   43 type  1   force =     0.00092257   -0.00026855    0.00680072
     atom   44 type  2   force =     0.00642974    0.00042945    0.00739405
     atom   45 type  1   force =     0.00336223   -0.00304798    0.00649119
     atom   46 type  2   force =    -0.00074653   -0.00561661    0.00864342
     atom   47 type  3   force =     0.00605794   -0.00079111    0.00136760
     atom   48 type  2   force =     0.00061937   -0.00160443   -0.00156527
     atom   49 type  1   force =    -0.00025048   -0.00017550   -0.00612269
     atom   50 type  2   force =     0.00503371    0.00160542   -0.00529493
     atom   51 type  1   force =     0.00035148    0.00593042    0.00082837
     atom   52 type  2   force =     0.00542734    0.00442011   -0.00109685
     atom   53 type  1   force =     0.00389433   -0.00044612    0.00094591
     atom   54 type  2   force =     0.00019072    0.00060995    0.00013007
     atom   55 type  3   force =     0.00740220    0.00702472   -0.00586426
     atom   56 type  2   force =     0.00108668    0.00570648   -0.00472141
     atom   57 type  3   force =     0.00066688   -0.00005057   -0.00135619
     atom   58 type  2   force =     0.00838141    0.00036285   -0.00059910
     atom   59 type  1   force =     0.00014105    0.00485367    0.00467361
     atom   60 type  2   force =     0.00424614    0.00529519    0.00446710
     atom   61 type  1   force =     0.00300802   -0.00019207    0.00437376
     atom   62 type  2   force =    -0.00056908   -0.00011822    0.00625777
     atom   63 type  1   force =     0.00489919    0.00519399    0.00010011
     atom   64 type  2   force =     0.00010475    0.00674744   -0.00050461

     Total force =     0.059574     Total SCF correction =     0.000247


     Computing stress (Cartesian axis) and pressure

          total   stress  (Ry/bohr**3)                   (kbar)     P=       18.46
   0.00008003  -0.00004794  -0.00008296           11.77       -7.05      -12.20
  -0.00004794   0.00008944   0.00000419           -7.05       13.16        0.62
  -0.00008296   0.00000419   0.00020698          -12.20        0.62       30.45

 
     init_run     :      2.73s CPU      2.97s WALL (       1 calls)
     electrons    :    125.15s CPU    128.10s WALL (       1 calls)
     forces       :      1.56s CPU      1.62s WALL (       1 calls)
     stress       :     15.29s CPU     15.48s WALL (       1 calls)

     Called by init_run:
     wfcinit      :      2.29s CPU      2.38s WALL (       1 calls)
     potinit      :      0.20s CPU      0.22s WALL (       1 calls)
     hinit0       :      0.12s CPU      0.22s WALL (       1 calls)

     Called by electrons:
     c_bands      :    105.48s CPU    107.39s WALL (      21 calls)
     sum_band     :     13.43s CPU     13.93s WALL (      21 calls)
     v_of_rho     :      0.76s CPU      0.79s WALL (      22 calls)
     newd         :      1.25s CPU      1.59s WALL (      22 calls)
     PAW_pot      :      3.45s CPU      3.53s WALL (      22 calls)
     mix_rho      :      0.97s CPU      1.05s WALL (      21 calls)

     Called by c_bands:
     init_us_2    :      1.73s CPU      1.76s WALL (      90 calls)
     init_us_2:cp :      1.73s CPU      1.76s WALL (      90 calls)
     cegterg      :     92.97s CPU     94.80s WALL (      42 calls)

     Called by *egterg:
     cdiaghg      :      8.23s CPU      8.35s WALL (     206 calls)
     h_psi        :     49.56s CPU     50.33s WALL (     208 calls)
     s_psi        :     12.64s CPU     12.74s WALL (     208 calls)
     g_psi        :      0.21s CPU      0.22s WALL (     164 calls)

     Called by h_psi:
     h_psi:calbec :     12.42s CPU     12.52s WALL (     208 calls)
     vloc_psi     :     23.92s CPU     24.30s WALL (     208 calls)
     add_vuspsi   :     12.74s CPU     12.86s WALL (     208 calls)

     General routines
     calbec       :     19.16s CPU     19.31s WALL (     260 calls)
     fft          :      0.37s CPU      0.47s WALL (     267 calls)
     ffts         :      0.49s CPU      0.50s WALL (     439 calls)
     fftw         :     24.66s CPU     25.06s WALL (   52918 calls)
 
     Parallel routines
 
     PWSCF        :   2m24.97s CPU   2m29.10s WALL

 
   This run was terminated on:  12:52:19  14May2026            

=------------------------------------------------------------------------------=
   JOB DONE.
=------------------------------------------------------------------------------=
