
     Program PWSCF v.7.1 starts on  7May2026 at  9: 5:50 

     This program is part of the open-source Quantum ESPRESSO suite
     for quantum simulation of materials; please cite
         "P. Giannozzi et al., J. Phys.:Condens. Matter 21 395502 (2009);
         "P. Giannozzi et al., J. Phys.:Condens. Matter 29 465901 (2017);
         "P. Giannozzi et al., J. Chem. Phys. 152 154105 (2020);
          URL http://www.quantum-espresso.org", 
     in publications or presentations arising from this work. More details at
     http://www.quantum-espresso.org/quote

     Parallel version (MPI & OpenMP), running on      32 processor cores
     Number of MPI processes:                32
     Threads/MPI process:                     1

     MPI processes distributed on     1 nodes
     91445 MiB available memory on the printing compute node when the environment starts
 
     Reading input from TiAlN_relax64atomsk1cutoff135.in

     Current dimensions of program PWSCF are:
     Max number of different atomic species (ntypx) = 10
     Max number of k-points (npk) = 150000
     Max angular momentum in pseudopotentials (lmaxx) =  4
     file Al.pbe-n-kjpaw_psl.1.0.0.UPF: wavefunction(s)  3S 3P renormalized
     file N.pbe-n-kjpaw_psl.1.0.0.UPF: wavefunction(s)  2S renormalized
     file Ti.pbe-spn-kjpaw_psl.1.0.0.UPF: wavefunction(s)  3S 3P 3D renormalized
 
     R & G space division:  proc/nbgrp/npool/nimage =      32
     Subspace diagonalization in iterative solution of the eigenvalue problem:
     one sub-group per band group will be used
     scalapack distributed-memory algorithm (size of sub-group:  2*  2 procs)

 
     Parallelization info
     --------------------
     sticks:   dense  smooth     PW     G-vecs:    dense   smooth      PW
     Min         331     331     82                25641    25641    3199
     Max         332     332     83                25644    25644    3201
     Sum       10605   10605   2637               820537   820537  102399
 
     Using Slab Decomposition
 


     bravais-lattice index     =            0
     lattice parameter (alat)  =      15.7036  a.u.
     unit-cell volume          =    3872.5735 (a.u.)^3
     number of atoms/cell      =           64
     number of atomic types    =            3
     number of electrons       =       400.00
     number of Kohn-Sham states=          240
     kinetic-energy cutoff     =     135.0000  Ry
     charge density cutoff     =     540.0000  Ry
     scf convergence threshold =      1.0E-06
     mixing beta               =       0.2000
     number of iterations used =            8  local-TF  mixing
     energy convergence thresh.=      1.0E-05
     force convergence thresh. =      1.0E-04
     press convergence thresh. =      5.0E-01
     Exchange-correlation= SLA  PW   PBX  PBC
                           (   1   4   3   4   0   0   0)
     nstep                     =           50


     celldm(1)=  15.703624  celldm(2)=   0.000000  celldm(3)=   0.000000
     celldm(4)=   0.000000  celldm(5)=   0.000000  celldm(6)=   0.000000

     crystal axes: (cart. coord. in units of alat)
               a(1) = (   1.000000   0.000000   0.000000 )  
               a(2) = (   0.000000   1.000000   0.000000 )  
               a(3) = (   0.000000   0.000000   1.000000 )  

     reciprocal axes: (cart. coord. in units 2 pi/alat)
               b(1) = (  1.000000  0.000000  0.000000 )  
               b(2) = (  0.000000  1.000000  0.000000 )  
               b(3) = (  0.000000  0.000000  1.000000 )  


     PseudoPot. # 1 for Al read from file:
     ../../pseudo/Al.pbe-n-kjpaw_psl.1.0.0.UPF
     MD5 check sum: 502b6b27b9c6270cab5dd1084b96fa6d
     Pseudo is Projector augmented-wave + core cor, Zval =  3.0
     Generated using &quot;atomic&quot; code by A. Dal Corso  v.6.3
     Shape of augmentation charge: PSQ
     Using radial grid of 1135 points,  6 beta functions with: 
                l(1) =   0
                l(2) =   0
                l(3) =   1
                l(4) =   1
                l(5) =   2
                l(6) =   2
     Q(r) pseudized with 0 coefficients 


     PseudoPot. # 2 for N  read from file:
     ../../pseudo/N.pbe-n-kjpaw_psl.1.0.0.UPF
     MD5 check sum: 14c48229446f9f2d411169a3abcbc3fa
     Pseudo is Projector augmented-wave + core cor, Zval =  5.0
     Generated using &quot;atomic&quot; code by A. Dal Corso  v.6.3
     Shape of augmentation charge: PSQ
     Using radial grid of 1085 points,  4 beta functions with: 
                l(1) =   0
                l(2) =   0
                l(3) =   1
                l(4) =   1
     Q(r) pseudized with 0 coefficients 


     PseudoPot. # 3 for Ti read from file:
     ../../pseudo/Ti.pbe-spn-kjpaw_psl.1.0.0.UPF
     MD5 check sum: 01f69b0d8ba4438b2e03ac6ea4af1c0b
     Pseudo is Projector augmented-wave + core cor, Zval = 12.0
     Generated using &quot;atomic&quot; code by A. Dal Corso  v.6.2.2
     Shape of augmentation charge: PSQ
     Using radial grid of 1177 points,  6 beta functions with: 
                l(1) =   0
                l(2) =   0
                l(3) =   1
                l(4) =   1
                l(5) =   2
                l(6) =   2
     Q(r) pseudized with 0 coefficients 


     atomic species   valence    mass     pseudopotential
        Al             3.00    26.98200     Al( 1.00)
        N              5.00    14.00700     N ( 1.00)
        Ti            12.00    47.86700     Ti( 1.00)

     No symmetry found



   Cartesian axes

     site n.     atom                  positions (alat units)
         1           Al  tau(   1) = (   0.0000000   0.0000000   0.0000000  )
         2           Ti  tau(   2) = (   0.2500000   0.0000000   0.0000000  )
         3           Al  tau(   3) = (   0.0000000   0.2500000   0.2500000  )
         4           Ti  tau(   4) = (   0.2500000   0.2500000   0.2500000  )
         5           N   tau(   5) = (   0.2500000   0.0000000   0.2500000  )
         6           N   tau(   6) = (   0.0000000   0.0000000   0.2500000  )
         7           N   tau(   7) = (   0.2500000   0.2500000   0.0000000  )
         8           N   tau(   8) = (   0.0000000   0.2500000   0.0000000  )
         9           Al  tau(   9) = (   0.0000000   0.0000000   0.5000000  )
        10           Al  tau(  10) = (   0.2500000   0.0000000   0.5000000  )
        11           Al  tau(  11) = (   0.0000000   0.2500000   0.7500000  )
        12           Al  tau(  12) = (   0.2500000   0.2500000   0.7500000  )
        13           N   tau(  13) = (   0.2500000   0.0000000   0.7500000  )
        14           N   tau(  14) = (   0.0000000   0.0000000   0.7500000  )
        15           N   tau(  15) = (   0.2500000   0.2500000   0.5000000  )
        16           N   tau(  16) = (   0.0000000   0.2500000   0.5000000  )
        17           Ti  tau(  17) = (   0.0000000   0.5000000   0.0000000  )
        18           Ti  tau(  18) = (   0.2500000   0.5000000   0.0000000  )
        19           Al  tau(  19) = (   0.0000000   0.7500000   0.2500000  )
        20           Al  tau(  20) = (   0.2500000   0.7500000   0.2500000  )
        21           N   tau(  21) = (   0.2500000   0.5000000   0.2500000  )
        22           N   tau(  22) = (   0.0000000   0.5000000   0.2500000  )
        23           N   tau(  23) = (   0.2500000   0.7500000   0.0000000  )
        24           N   tau(  24) = (   0.0000000   0.7500000   0.0000000  )
        25           Ti  tau(  25) = (   0.0000000   0.5000000   0.5000000  )
        26           Al  tau(  26) = (   0.2500000   0.5000000   0.5000000  )
        27           Al  tau(  27) = (   0.0000000   0.7500000   0.7500000  )
        28           Ti  tau(  28) = (   0.2500000   0.7500000   0.7500000  )
        29           N   tau(  29) = (   0.2500000   0.5000000   0.7500000  )
        30           N   tau(  30) = (   0.0000000   0.5000000   0.7500000  )
        31           N   tau(  31) = (   0.2500000   0.7500000   0.5000000  )
        32           N   tau(  32) = (   0.0000000   0.7500000   0.5000000  )
        33           Al  tau(  33) = (   0.5000000   0.0000000   0.0000000  )
        34           Ti  tau(  34) = (   0.7500000   0.0000000   0.0000000  )
        35           Ti  tau(  35) = (   0.5000000   0.2500000   0.2500000  )
        36           Al  tau(  36) = (   0.7500000   0.2500000   0.2500000  )
        37           N   tau(  37) = (   0.7500000   0.0000000   0.2500000  )
        38           N   tau(  38) = (   0.5000000   0.0000000   0.2500000  )
        39           N   tau(  39) = (   0.7500000   0.2500000   0.0000000  )
        40           N   tau(  40) = (   0.5000000   0.2500000   0.0000000  )
        41           Ti  tau(  41) = (   0.5000000   0.0000000   0.5000000  )
        42           Al  tau(  42) = (   0.7500000   0.0000000   0.5000000  )
        43           Ti  tau(  43) = (   0.5000000   0.2500000   0.7500000  )
        44           Ti  tau(  44) = (   0.7500000   0.2500000   0.7500000  )
        45           N   tau(  45) = (   0.7500000   0.0000000   0.7500000  )
        46           N   tau(  46) = (   0.5000000   0.0000000   0.7500000  )
        47           N   tau(  47) = (   0.7500000   0.2500000   0.5000000  )
        48           N   tau(  48) = (   0.5000000   0.2500000   0.5000000  )
        49           Ti  tau(  49) = (   0.5000000   0.5000000   0.0000000  )
        50           Ti  tau(  50) = (   0.7500000   0.5000000   0.0000000  )
        51           Ti  tau(  51) = (   0.5000000   0.7500000   0.2500000  )
        52           Al  tau(  52) = (   0.7500000   0.7500000   0.2500000  )
        53           N   tau(  53) = (   0.7500000   0.5000000   0.2500000  )
        54           N   tau(  54) = (   0.5000000   0.5000000   0.2500000  )
        55           N   tau(  55) = (   0.7500000   0.7500000   0.0000000  )
        56           N   tau(  56) = (   0.5000000   0.7500000   0.0000000  )
        57           Al  tau(  57) = (   0.5000000   0.5000000   0.5000000  )
        58           Al  tau(  58) = (   0.7500000   0.5000000   0.5000000  )
        59           Ti  tau(  59) = (   0.5000000   0.7500000   0.7500000  )
        60           Ti  tau(  60) = (   0.7500000   0.7500000   0.7500000  )
        61           N   tau(  61) = (   0.7500000   0.5000000   0.7500000  )
        62           N   tau(  62) = (   0.5000000   0.5000000   0.7500000  )
        63           N   tau(  63) = (   0.7500000   0.7500000   0.5000000  )
        64           N   tau(  64) = (   0.5000000   0.7500000   0.5000000  )

     number of k points=     1  Gaussian smearing, width (Ry)=  0.0050
                       cart. coord. in units 2pi/alat
        k(    1) = (   0.0000000   0.0000000   0.0000000), wk =   2.0000000

     Dense  grid:   820537 G-vectors     FFT dimensions: ( 120, 120, 120)

     Estimated max dynamical RAM per process >     189.67 MB

     Estimated total dynamical RAM >       5.93 GB

     Check: negative core charge=   -0.000002

     Initial potential from superposition of free atoms

     starting charge     399.9395, renormalised to     400.0000
     Starting wfcs are  352 randomized atomic wfcs
     Checking if some PAW data can be deallocated... 

     total cpu time spent up to now is        4.0 secs

     Self-consistent Calculation

     iteration #  1     ecut=   135.00 Ry     beta= 0.20
     Davidson diagonalization with overlap
     ethr =  1.00E-02,  avg # of iterations =  2.0

     total cpu time spent up to now is        7.5 secs

     total energy              =   -4470.74720395 Ry
     estimated scf accuracy    <      11.25151841 Ry

     iteration #  2     ecut=   135.00 Ry     beta= 0.20
     Davidson diagonalization with overlap
     ethr =  2.81E-03,  avg # of iterations =  1.0

     total cpu time spent up to now is       10.4 secs

     total energy              =   -4469.04771328 Ry
     estimated scf accuracy    <       6.00580436 Ry

     iteration #  3     ecut=   135.00 Ry     beta= 0.20
     Davidson diagonalization with overlap
     ethr =  1.50E-03,  avg # of iterations =  6.0

     total cpu time spent up to now is       14.6 secs

     total energy              =   -4469.94535372 Ry
     estimated scf accuracy    <       0.91351961 Ry

     iteration #  4     ecut=   135.00 Ry     beta= 0.20
     Davidson diagonalization with overlap
     ethr =  2.28E-04,  avg # of iterations =  3.0

     total cpu time spent up to now is       17.9 secs

     total energy              =   -4469.93226752 Ry
     estimated scf accuracy    <       0.42296427 Ry

     iteration #  5     ecut=   135.00 Ry     beta= 0.20
     Davidson diagonalization with overlap
     c_bands:  2 eigenvalues not converged
     ethr =  1.06E-04,  avg # of iterations = 20.0

     total cpu time spent up to now is       22.8 secs

     total energy              =   -4469.94073421 Ry
     estimated scf accuracy    <       0.13362762 Ry

     iteration #  6     ecut=   135.00 Ry     beta= 0.20
     Davidson diagonalization with overlap
     ethr =  3.34E-05,  avg # of iterations = 16.0

     total cpu time spent up to now is       27.7 secs

     total energy              =   -4469.94307329 Ry
     estimated scf accuracy    <       0.05115405 Ry

     iteration #  7     ecut=   135.00 Ry     beta= 0.20
     Davidson diagonalization with overlap
     ethr =  1.28E-05,  avg # of iterations =  3.0

     total cpu time spent up to now is       31.1 secs

     total energy              =   -4469.94979507 Ry
     estimated scf accuracy    <       0.01038625 Ry

     iteration #  8     ecut=   135.00 Ry     beta= 0.20
     Davidson diagonalization with overlap
     ethr =  2.60E-06,  avg # of iterations = 14.0

     total cpu time spent up to now is       36.2 secs

     total energy              =   -4469.95040464 Ry
     estimated scf accuracy    <       0.00602962 Ry

     iteration #  9     ecut=   135.00 Ry     beta= 0.20
     Davidson diagonalization with overlap
     ethr =  1.51E-06,  avg # of iterations =  2.0

     total cpu time spent up to now is       39.4 secs

     total energy              =   -4469.94986998 Ry
     estimated scf accuracy    <       0.00286485 Ry

     iteration # 10     ecut=   135.00 Ry     beta= 0.20
     Davidson diagonalization with overlap
     ethr =  7.16E-07,  avg # of iterations =  6.0

     total cpu time spent up to now is       42.9 secs

     total energy              =   -4469.95013283 Ry
     estimated scf accuracy    <       0.00067291 Ry

     iteration # 11     ecut=   135.00 Ry     beta= 0.20
     Davidson diagonalization with overlap
     ethr =  1.68E-07,  avg # of iterations =  2.0

     total cpu time spent up to now is       46.2 secs

     total energy              =   -4469.95008928 Ry
     estimated scf accuracy    <       0.00038065 Ry

     iteration # 12     ecut=   135.00 Ry     beta= 0.20
     Davidson diagonalization with overlap
     ethr =  9.52E-08,  avg # of iterations =  7.0

     total cpu time spent up to now is       49.9 secs

     total energy              =   -4469.95014179 Ry
     estimated scf accuracy    <       0.00014277 Ry

     iteration # 13     ecut=   135.00 Ry     beta= 0.20
     Davidson diagonalization with overlap
     ethr =  3.57E-08,  avg # of iterations =  2.0

     total cpu time spent up to now is       53.1 secs

     total energy              =   -4469.95010745 Ry
     estimated scf accuracy    <       0.00009539 Ry

     iteration # 14     ecut=   135.00 Ry     beta= 0.20
     Davidson diagonalization with overlap
     ethr =  2.38E-08,  avg # of iterations =  6.0

     total cpu time spent up to now is       57.2 secs

     total energy              =   -4469.95011894 Ry
     estimated scf accuracy    <       0.00023132 Ry

     iteration # 15     ecut=   135.00 Ry     beta= 0.20
     Davidson diagonalization with overlap
     ethr =  2.38E-08,  avg # of iterations =  6.0

     total cpu time spent up to now is       61.1 secs

     total energy              =   -4469.95013461 Ry
     estimated scf accuracy    <       0.00000922 Ry

     iteration # 16     ecut=   135.00 Ry     beta= 0.20
     Davidson diagonalization with overlap
     ethr =  2.31E-09,  avg # of iterations =  6.0

     total cpu time spent up to now is       65.0 secs

     total energy              =   -4469.95013608 Ry
     estimated scf accuracy    <       0.00000211 Ry

     iteration # 17     ecut=   135.00 Ry     beta= 0.20
     Davidson diagonalization with overlap
     ethr =  5.28E-10,  avg # of iterations =  3.0

     total cpu time spent up to now is       68.3 secs

     End of self-consistent calculation

          k = 0.0000 0.0000 0.0000 (102399 PWs)   bands (ev):

   -42.9060 -42.8504 -42.4396 -42.4217 -42.4148 -42.3721 -42.3587 -42.3428
   -42.3243 -42.3131 -42.2699 -42.0921 -41.8442 -41.7363 -41.7132 -41.3701
   -21.2512 -20.1116 -19.9799 -19.8577 -19.5608 -19.2940 -19.1754 -19.1667
   -19.1638 -19.0982 -19.0766 -19.0643 -19.0448 -19.0418 -19.0361 -18.8339
   -18.8212 -18.8119 -18.8015 -18.7975 -18.7592 -18.7102 -18.6825 -18.6808
   -18.6600 -18.6457 -18.6257 -18.6115 -18.5934 -18.5541 -18.5416 -18.5021
   -18.4784 -18.4653 -18.4062 -18.3773 -18.3022 -18.2591 -18.2314 -18.1677
   -18.1389 -18.0944 -17.8373 -17.7971 -17.6681 -17.5426 -16.7793 -16.5499
    -3.3769  -2.3043  -2.2500  -2.1564  -2.1344  -1.7284  -1.6654  -1.6422
    -1.6121  -1.4887  -0.8763  -0.7349  -0.6860  -0.6462  -0.5975  -0.5846
    -0.5272  -0.4448  -0.1699  -0.1325  -0.1046  -0.0361  -0.0302   0.0143
     1.2333   2.0594   2.0946   2.1663   2.2453   2.4872   2.6112   2.6229
     4.6098   4.9544   6.3739   6.4093   6.4837   6.7836   6.9698   7.0851
     7.1153   7.1434   7.1937   7.2373   7.2998   7.4100   7.4344   7.5294
     7.5893   7.6971   7.8542   7.9879   8.1876   8.4073   8.4582   8.4747
     8.4955   8.6135   8.7535   8.8972   8.9313   8.9546   8.9756   9.1084
     9.1737   9.1887   9.2872   9.5034   9.5626   9.6595   9.7069   9.8115
     9.8569   9.8713   9.9275   9.9305  10.0364  10.1637  10.2171  10.2681
    10.5034  10.7005  10.9820  11.0251  11.0584  11.0970  11.1351  11.1738
    11.3141  11.3378  11.3666  11.4440  11.5011  11.5726  11.7721  11.8841
    11.9850  12.0415  12.0452  12.1039  12.1250  12.1478  12.2145  12.2386
    12.2586  12.2720  12.3197  12.3606  12.4327  12.4620  12.4809  12.5240
    12.5614  12.6149  12.6416  12.6576  12.6959  12.7270  12.7324  12.7752
    13.1373  13.2585  13.2819  13.3634  13.4913  13.5419  13.5598  13.6552
    13.7310  13.7422  13.8027  13.8186  13.8711  13.9165  14.0135  14.0162
    14.0520  14.1554  14.2621  14.3173  14.5683  14.7325  14.7926  14.8436
    14.9015  15.0157  15.0587  15.1342  15.2091  15.2864  15.3666  15.4263
    15.4750  15.6208  15.6873  15.7578  15.7940  15.8841  15.9556  15.9834
    16.0626  16.1006  16.2374  16.2893  16.3614  16.3699  16.4640  16.5148
    16.6376  16.6554  16.6846  16.7430  16.8462  16.9278  16.9772  17.0766

     the Fermi energy is    14.0487 ev

!    total energy              =   -4469.95013581 Ry
     total all-electron energy =    -38592.562721 Ry
     estimated scf accuracy    <       0.00000060 Ry
     smearing contrib. (-TS)   =      -0.00752902 Ry
     internal energy E=F+TS    =   -4469.94260679 Ry

     The total energy is F=E-TS. E is the sum of the following terms:
     one-electron contribution =    -838.83746324 Ry
     hartree contribution      =     687.26065990 Ry
     xc contribution           =    -529.16280098 Ry
     ewald contribution        =   -1933.00190254 Ry
     one-center paw contrib.   =   -1856.20109993 Ry

     convergence has been achieved in  17 iterations

     Forces acting on atoms (cartesian axes, Ry/au):

     atom    1 type  1   force =     0.00132949   -0.00139642   -0.00450544
     atom    2 type  3   force =     0.02295234    0.00254023   -0.00750735
     atom    3 type  1   force =     0.00035480    0.00391170    0.00196340
     atom    4 type  3   force =     0.17221379   -0.00908644   -0.01796494
     atom    5 type  2   force =     0.00925745   -0.01709861    0.02344157
     atom    6 type  2   force =     0.00891789   -0.01083698    0.01194204
     atom    7 type  2   force =    -0.02037342   -0.00009153   -0.02833231
     atom    8 type  2   force =     0.00657335   -0.04200373   -0.00296011
     atom    9 type  1   force =    -0.00097588   -0.00075549    0.00241974
     atom   10 type  1   force =    -0.01195877   -0.00141587    0.00492119
     atom   11 type  1   force =    -0.00106326   -0.00323831   -0.00351692
     atom   12 type  1   force =     0.00057984   -0.00067384   -0.00093714
     atom   13 type  2   force =     0.00632078    0.05329805   -0.01687058
     atom   14 type  2   force =    -0.00405740   -0.01870167   -0.00887582
     atom   15 type  2   force =    -0.00789031    0.00210260    0.05773244
     atom   16 type  2   force =     0.00192769   -0.00420002    0.00473332
     atom   17 type  3   force =     0.00162299    0.00449892   -0.00045265
     atom   18 type  3   force =    -0.02434294   -0.00518931    0.00049102
     atom   19 type  1   force =    -0.00036562   -0.00052362    0.00434714
     atom   20 type  1   force =    -0.00490595   -0.00041675    0.00206328
     atom   21 type  2   force =    -0.00957836    0.02099123    0.02789580
     atom   22 type  2   force =     0.00626718    0.00754667    0.00188312
     atom   23 type  2   force =    -0.00272905   -0.00022270    0.02751330
     atom   24 type  2   force =    -0.00827151    0.03976810   -0.01419169
     atom   25 type  3   force =    -0.00123993    0.00450769    0.00588657
     atom   26 type  1   force =     0.01118871    0.00107088    0.00186420
     atom   27 type  1   force =     0.00054785    0.00285608   -0.00177088
     atom   28 type  3   force =     0.15789537   -0.00184273    0.01265110
     atom   29 type  2   force =    -0.00086779   -0.05069730   -0.02414594
     atom   30 type  2   force =     0.00200880    0.01937763   -0.00233739
     atom   31 type  2   force =    -0.00091574   -0.00396462   -0.05385796
     atom   32 type  2   force =    -0.00481835   -0.00023539    0.01091848
     atom   33 type  1   force =    -0.00150639   -0.00187216   -0.00318830
     atom   34 type  3   force =    -0.02530723   -0.00284778   -0.00687394
     atom   35 type  3   force =    -0.09543463   -0.00347371    0.00749939
     atom   36 type  1   force =     0.00611333   -0.00132824    0.00010478
     atom   37 type  2   force =    -0.02661994   -0.00576203    0.02427814
     atom   38 type  2   force =     0.01876985    0.01516823   -0.04745613
     atom   39 type  2   force =     0.01486340   -0.00093422    0.02162793
     atom   40 type  2   force =     0.00124318   -0.04681462   -0.00044888
     atom   41 type  3   force =    -0.00601006   -0.00646251    0.00260435
     atom   42 type  1   force =     0.01302343    0.00315164    0.00043254
     atom   43 type  3   force =     0.07398715   -0.01076367   -0.01351372
     atom   44 type  3   force =    -0.17631178   -0.00299844    0.00574713
     atom   45 type  2   force =     0.01730294   -0.00312436   -0.00170615
     atom   46 type  2   force =    -0.01754228    0.00477087    0.04602569
     atom   47 type  2   force =     0.02024824   -0.00054579   -0.04787513
     atom   48 type  2   force =    -0.00513865    0.01535649   -0.00119577
     atom   49 type  3   force =    -0.00128897   -0.00045877   -0.00183061
     atom   50 type  3   force =     0.02439547    0.00656321   -0.00184810
     atom   51 type  3   force =    -0.00991473    0.00387408   -0.00173323
     atom   52 type  1   force =    -0.00708707    0.00032523    0.00009236
     atom   53 type  2   force =    -0.00819213    0.00986016    0.03362020
     atom   54 type  2   force =     0.01671496   -0.01064031    0.04313732
     atom   55 type  2   force =     0.00727821    0.00287669    0.02468635
     atom   56 type  2   force =    -0.00091070    0.04421720    0.01312404
     atom   57 type  1   force =     0.00111750   -0.00000481    0.00142704
     atom   58 type  1   force =    -0.01264909    0.00135302    0.00165512
     atom   59 type  3   force =     0.02367747    0.01654094   -0.01943911
     atom   60 type  3   force =    -0.16377941   -0.00125435    0.00508029
     atom   61 type  2   force =     0.01797746    0.00269639   -0.00828985
     atom   62 type  2   force =    -0.01954092   -0.00441712   -0.04312561
     atom   63 type  2   force =     0.00378475   -0.00752945   -0.03785860
     atom   64 type  2   force =     0.01113262   -0.00540022   -0.00920010

     Total force =     0.422519     Total SCF correction =     0.002285


     Computing stress (Cartesian axis) and pressure

          total   stress  (Ry/bohr**3)                   (kbar)     P=      462.58
   0.01173947   0.00000037   0.00000696         1726.94        0.05        1.02
   0.00000037  -0.00129824   0.00001819            0.05     -190.98        2.68
   0.00000696   0.00001819  -0.00100755            1.02        2.68     -148.22


     BFGS Geometry Optimization
     Energy error            =      0.0E+00 Ry
     Gradient error          =      1.8E-01 Ry/Bohr
     Cell gradient error     =      1.7E+03 kbar

     number of scf cycles    =   1
     number of bfgs steps    =   0

     enthalpy           new  =   -4469.9501358074 Ry

     new trust radius        =       0.5000000000 bohr
     new conv_thr            =       0.0000010000 Ry

     new unit-cell volume =   3996.42557 a.u.^3 (   592.20917 Ang^3 )
     density =      4.61480 g/cm^3

CELL_PARAMETERS (angstrom)
   8.643842112   0.000010451   0.000197945
   0.000010451   8.273081044   0.000517305
   0.000197945   0.000517305   8.281347819

ATOMIC_POSITIONS (angstrom)
Al            0.0001001633       -0.0001007218       -0.0003252336
Ti            2.1626898764        0.0001857672       -0.0004923884
Al            0.0000788352        2.0686816844        2.0706080288
Ti            2.1739881697        2.0677468762        2.0692192061
N             2.1617075626       -0.0011010024        2.0720785323
N             0.0007214310       -0.0006521164        2.0711989694
N             2.1594280416        2.0682661438       -0.0018664189
N             0.0004978775        2.0652411944       -0.0000845306
Al            0.0000254482        0.0002041819        4.1408485760
Al            2.1601584662        0.0001591825        4.1410786099
Al            0.0000709527        2.0684246967        6.2108863015
Al            2.1611552859        2.0686122549        6.2111220263
N             2.1615852062        0.0042340474        6.2098427821
N            -0.0001572666       -0.0009607127        6.2103700633
N             2.1604677121        2.0686834128        4.1450201906
N             0.0002468358        2.0682260549        4.1411448995
Ti            0.0001275108        4.1368649550        0.0002260004
Ti            2.1591316174        4.1361689134        0.0003435176
Al            0.0000297839        6.2049023687        2.0710387332
Al            2.1606482136        6.2049126775        2.0709233492
N             2.1602936015        4.1381863462        2.0726588574
N             0.0005269213        4.1372140774        2.0707315870
N             2.1607627915        6.2047974599        0.0024235333
N            -0.0006154051        6.2076785522       -0.0006362975
Ti            0.0000107850        4.1371242681        4.1413575078
Al            2.1619077511        4.1368790222        4.1411166410
Al            0.0001975719        6.2054047169        6.2112710239
Ti            2.1730135894        6.2050685600        6.2123618253
N             2.1610487819        4.1332750235        6.2095757744
N             0.0003050363        4.1383258874        6.2111008807
N             2.1609982481        6.2047859016        4.1372235649
N            -0.0002562129        6.2050525094        4.1418500398
Al            4.3218075505       -0.0001297978       -0.0001311896
Ti            6.4809747800       -0.0001975591       -0.0003478005
Ti            4.3147825753        2.0681543353        2.0711064238
Al            6.4833942962        2.0683116425        2.0706223077
N             6.4809254128       -0.0002782511        2.0722378829
N             4.3233846900        0.0012281802        2.0670103608
N             6.4840041279        2.0682108284        0.0018390391
N             4.3220173320        2.0648994986        0.0001956868
Ti            4.3215672000       -0.0002021475        4.1409608400
Al            6.4839618172        0.0004937713        4.1408536282
Ti            4.3276467188        2.0678872005        6.2102637411
Ti            6.4697483248        2.0684498585        6.2117031937
N             6.4843337420        0.0001705011        6.2110361784
N             4.3207478587        0.0007374561        6.2144322371
N             6.4845087055        2.0684971788        4.1374958135
N             4.3216354652        2.0696415497        4.1408159503
Ti            4.3218291601        4.1365126558        0.0002254759
Ti            6.4847249020        4.1370216531        0.0002737756
Ti            4.3212313453        6.2052247017        2.0706987911
Al            6.4824049288        6.2049714014        2.0708800481
N             6.4823191132        4.1373888929        2.0731710028
N             4.3232352422        4.1359079556        2.0738084701
N             6.4834378477        6.2050261831        0.0023184707
N             4.3218603040        6.2080047435        0.0014345207
Al            4.3221094557        4.1368040597        4.1411345484
Al            6.4820327305        4.1369045908        4.1412004809
Ti            4.3238613172        6.2063967343        6.2100946990
Ti            6.4706978097        6.2051161521        6.2119137388
N             6.4843897792        4.1371307511        6.2108196073
N             4.3206023406        4.1366149947        6.2082553708
N             6.4832734939        6.2045341254        4.1384774589
N             4.3228666457        6.2046851898        4.1404967367



     Writing config-only to output data dir ../output/TiAlN.save/
     NEW-OLD atomic charge density approx. for the potential

     Check: negative core charge=   -0.000002
     extrapolated charge  412.39441, renormalised to  400.00000

     total cpu time spent up to now is       83.6 secs

     Self-consistent Calculation

     iteration #  1     ecut=   135.00 Ry     beta= 0.20
     Davidson diagonalization with overlap
     c_bands:  1 eigenvalues not converged
     ethr =  1.00E-06,  avg # of iterations = 40.0

     total cpu time spent up to now is      100.9 secs

     total energy              =   -4467.04341461 Ry
     estimated scf accuracy    <      31.57679127 Ry

     iteration #  2     ecut=   135.00 Ry     beta= 0.20
     Davidson diagonalization with overlap
     ethr =  7.89E-03,  avg # of iterations =  2.0

     total cpu time spent up to now is      104.2 secs

     total energy              =   -4471.30658457 Ry
     estimated scf accuracy    <       1.39594805 Ry

     iteration #  3     ecut=   135.00 Ry     beta= 0.20
     Davidson diagonalization with overlap
     ethr =  3.49E-04,  avg # of iterations = 14.0

     total cpu time spent up to now is      110.5 secs

     total energy              =   -4471.68823776 Ry
     estimated scf accuracy    <       1.94896844 Ry

     iteration #  4     ecut=   135.00 Ry     beta= 0.20
     Davidson diagonalization with overlap
     ethr =  3.49E-04,  avg # of iterations =  1.0

     total cpu time spent up to now is      113.5 secs

     total energy              =   -4471.64119156 Ry
     estimated scf accuracy    <       1.16634175 Ry

     iteration #  5     ecut=   135.00 Ry     beta= 0.20
     Davidson diagonalization with overlap
     ethr =  2.92E-04,  avg # of iterations =  1.0

     total cpu time spent up to now is      116.4 secs

     total energy              =   -4471.60033253 Ry
     estimated scf accuracy    <       0.63311837 Ry

     iteration #  6     ecut=   135.00 Ry     beta= 0.20
     Davidson diagonalization with overlap
     ethr =  1.58E-04,  avg # of iterations =  1.0

     total cpu time spent up to now is      119.5 secs

     total energy              =   -4471.58435705 Ry
     estimated scf accuracy    <       0.25992619 Ry

     iteration #  7     ecut=   135.00 Ry     beta= 0.20
     Davidson diagonalization with overlap
     ethr =  6.50E-05,  avg # of iterations = 20.0

     total cpu time spent up to now is      123.9 secs

     total energy              =   -4471.59289065 Ry
     estimated scf accuracy    <       0.06618541 Ry

     iteration #  8     ecut=   135.00 Ry     beta= 0.20
     Davidson diagonalization with overlap
     c_bands:  1 eigenvalues not converged
     ethr =  1.65E-05,  avg # of iterations = 20.0

     total cpu time spent up to now is      128.7 secs

     total energy              =   -4471.59526162 Ry
     estimated scf accuracy    <       0.04485217 Ry

     iteration #  9     ecut=   135.00 Ry     beta= 0.20
     Davidson diagonalization with overlap
     ethr =  1.12E-05,  avg # of iterations =  2.0

     total cpu time spent up to now is      131.9 secs

     total energy              =   -4471.59114431 Ry
     estimated scf accuracy    <       0.03536875 Ry

     iteration # 10     ecut=   135.00 Ry     beta= 0.20
     Davidson diagonalization with overlap
     ethr =  8.84E-06,  avg # of iterations =  4.0

     total cpu time spent up to now is      135.3 secs

     total energy              =   -4471.59058490 Ry
     estimated scf accuracy    <       0.03063188 Ry

     iteration # 11     ecut=   135.00 Ry     beta= 0.20
     Davidson diagonalization with overlap
     ethr =  7.66E-06,  avg # of iterations =  2.0

     total cpu time spent up to now is      138.5 secs

     total energy              =   -4471.59092617 Ry
     estimated scf accuracy    <       0.00922366 Ry

     iteration # 12     ecut=   135.00 Ry     beta= 0.20
     Davidson diagonalization with overlap
     c_bands:  1 eigenvalues not converged
     ethr =  2.31E-06,  avg # of iterations = 20.0

     total cpu time spent up to now is      143.7 secs

     total energy              =   -4471.59142868 Ry
     estimated scf accuracy    <       0.00225922 Ry

     iteration # 13     ecut=   135.00 Ry     beta= 0.20
     Davidson diagonalization with overlap
     ethr =  5.65E-07,  avg # of iterations =  6.0

     total cpu time spent up to now is      147.2 secs

     total energy              =   -4471.59113539 Ry
     estimated scf accuracy    <       0.00117766 Ry

     iteration # 14     ecut=   135.00 Ry     beta= 0.20
     Davidson diagonalization with overlap
     ethr =  2.94E-07,  avg # of iterations =  7.0

     total cpu time spent up to now is      151.4 secs

     total energy              =   -4471.59138013 Ry
     estimated scf accuracy    <       0.00196934 Ry

     iteration # 15     ecut=   135.00 Ry     beta= 0.20
     Davidson diagonalization with overlap
     ethr =  2.94E-07,  avg # of iterations =  3.0

     total cpu time spent up to now is      154.6 secs

     total energy              =   -4471.59127499 Ry
     estimated scf accuracy    <       0.00064595 Ry

     iteration # 16     ecut=   135.00 Ry     beta= 0.20
     Davidson diagonalization with overlap
     ethr =  1.61E-07,  avg # of iterations =  7.0

     total cpu time spent up to now is      158.5 secs

     total energy              =   -4471.59137055 Ry
     estimated scf accuracy    <       0.00024788 Ry

     iteration # 17     ecut=   135.00 Ry     beta= 0.20
     Davidson diagonalization with overlap
     ethr =  6.20E-08,  avg # of iterations =  7.0

     total cpu time spent up to now is      162.2 secs

     total energy              =   -4471.59140112 Ry
     estimated scf accuracy    <       0.00001464 Ry

     iteration # 18     ecut=   135.00 Ry     beta= 0.20
     Davidson diagonalization with overlap
     ethr =  3.66E-09,  avg # of iterations =  6.0

     total cpu time spent up to now is      166.3 secs

     total energy              =   -4471.59139943 Ry
     estimated scf accuracy    <       0.00003983 Ry

     iteration # 19     ecut=   135.00 Ry     beta= 0.20
     Davidson diagonalization with overlap
     ethr =  3.66E-09,  avg # of iterations =  6.0

     total cpu time spent up to now is      169.9 secs

     total energy              =   -4471.59139992 Ry
     estimated scf accuracy    <       0.00000527 Ry

     iteration # 20     ecut=   135.00 Ry     beta= 0.20
     Davidson diagonalization with overlap
     ethr =  1.32E-09,  avg # of iterations =  6.0

     total cpu time spent up to now is      173.8 secs

     total energy              =   -4471.59140085 Ry
     estimated scf accuracy    <       0.00000322 Ry

     iteration # 21     ecut=   135.00 Ry     beta= 0.20
     Davidson diagonalization with overlap
     ethr =  8.05E-10,  avg # of iterations =  3.0

     total cpu time spent up to now is      177.0 secs

     End of self-consistent calculation

          k = 0.0000 0.0000 0.0000 (102399 PWs)   bands (ev):

   -43.4270 -43.3884 -43.0948 -43.0082 -42.9786 -42.9579 -42.8756 -42.8563
   -42.8327 -42.8169 -42.7796 -42.6847 -42.6098 -42.5202 -42.3500 -42.0334
   -21.3336 -20.4277 -20.3149 -20.1363 -19.9947 -19.7877 -19.7484 -19.7317
   -19.6364 -19.6232 -19.6078 -19.5952 -19.4578 -19.4458 -19.4302 -19.4187
   -19.3969 -19.3923 -19.3544 -19.3369 -19.3026 -19.2880 -19.2729 -19.2662
   -19.2561 -19.2555 -19.2243 -19.1863 -19.1651 -19.1151 -19.0986 -19.0903
   -19.0593 -19.0329 -19.0272 -18.9909 -18.9885 -18.9662 -18.9436 -18.8754
   -18.7467 -18.7129 -18.5075 -18.4650 -18.4415 -18.2202 -17.6886 -17.6149
    -3.6381  -2.5453  -2.5054  -2.4045  -2.3811  -2.1511  -2.0366  -1.9232
    -1.8747  -1.7051  -1.2974  -1.1455  -1.0999  -1.0324  -1.0045  -0.9939
    -0.9472  -0.8479  -0.5580  -0.5438  -0.4975  -0.4416  -0.4362  -0.3846
     0.3194   1.1650   1.1897   1.2737   1.3525   1.5904   1.7209   1.7437
     4.2820   4.6431   5.9670   6.0075   6.0352   6.4353   6.5896   6.7120
     6.7846   6.8143   6.8928   6.9266   6.9534   7.1377   7.1607   7.2482
     7.3366   7.3448   7.4688   7.6379   7.8585   7.9297   7.9953   8.0189
     8.1060   8.2334   8.2943   8.4491   8.4990   8.5571   8.5779   8.6723
     8.7513   8.7789   8.8083   8.9130   9.0705   9.1696   9.2297   9.3617
     9.4205   9.4332   9.4609   9.4942   9.5372   9.5998   9.7737   9.8094
    10.0137  10.0621  10.4289  10.4746  10.5297  10.5442  10.5877  10.5913
    10.6691  10.7173  10.7563  10.7737  10.8015  10.8860  11.1173  11.2833
    11.3107  11.3640  11.3812  11.4153  11.4303  11.4530  11.4813  11.4868
    11.5181  11.5243  11.5625  11.5757  11.6593  11.7205  11.7859  11.8125
    11.8486  11.8784  11.9761  12.0074  12.0276  12.1181  12.1234  12.3119
    12.5749  12.6379  12.7135  12.8373  12.9261  12.9796  13.0053  13.0867
    13.1008  13.1557  13.2192  13.2644  13.3215  13.3911  13.4936  13.5187
    13.6008  13.6177  13.7693  13.8251  14.1104  14.2013  14.2840  14.3791
    14.5089  14.5733  14.6012  14.7020  14.7745  14.8107  14.8963  14.9770
    15.0594  15.1374  15.1420  15.1843  15.2645  15.3699  15.4433  15.4847
    15.5432  15.6092  15.6854  15.7016  15.7358  15.7653  15.8588  15.8947
    15.9328  15.9903  16.1552  16.1716  16.2878  16.3112  16.3294  16.4040

     the Fermi energy is    13.5582 ev

!    total energy              =   -4471.59140021 Ry
     total all-electron energy =    -38594.203986 Ry
     estimated scf accuracy    <       0.00000083 Ry
     smearing contrib. (-TS)   =      -0.00638361 Ry
     internal energy E=F+TS    =   -4471.58501660 Ry

     The total energy is F=E-TS. E is the sum of the following terms:
     one-electron contribution =    -871.08327248 Ry
     hartree contribution      =     694.43113327 Ry
     xc contribution           =    -527.62737388 Ry
     ewald contribution        =   -1911.26228974 Ry
     one-center paw contrib.   =   -1856.04321377 Ry

     convergence has been achieved in  21 iterations

     Forces acting on atoms (cartesian axes, Ry/au):

     atom    1 type  1   force =     0.00063434   -0.00230454   -0.00303422
     atom    2 type  3   force =     0.01437011    0.00073964   -0.00614128
     atom    3 type  1   force =     0.00096578    0.00246437    0.00060325
     atom    4 type  3   force =     0.10859097   -0.00670704   -0.02269674
     atom    5 type  2   force =     0.01088613   -0.01410320    0.02136772
     atom    6 type  2   force =     0.00918940   -0.01032963    0.01952907
     atom    7 type  2   force =    -0.01887894    0.00100797   -0.02299486
     atom    8 type  2   force =     0.00618921   -0.02623468   -0.00295822
     atom    9 type  1   force =    -0.00078340   -0.00181229    0.00292953
     atom   10 type  1   force =    -0.01394870   -0.00062110    0.00644790
     atom   11 type  1   force =    -0.00922440   -0.00416745   -0.00270798
     atom   12 type  1   force =    -0.00020909   -0.00249929   -0.00054374
     atom   13 type  2   force =     0.00468609    0.04681617   -0.01657099
     atom   14 type  2   force =    -0.00311877   -0.01616572   -0.01641979
     atom   15 type  2   force =    -0.00618765   -0.00037259    0.05460068
     atom   16 type  2   force =    -0.00119209   -0.00351856    0.00283475
     atom   17 type  3   force =     0.00277241    0.00329790    0.00103441
     atom   18 type  3   force =    -0.02545696   -0.00477676    0.00190593
     atom   19 type  1   force =     0.00121767    0.00035013    0.00357338
     atom   20 type  1   force =    -0.00470140    0.00205219    0.00088840
     atom   21 type  2   force =    -0.00267577    0.01692376    0.02297022
     atom   22 type  2   force =     0.00422932    0.00635045    0.00362116
     atom   23 type  2   force =    -0.00466438   -0.00200820    0.02087581
     atom   24 type  2   force =    -0.00834285    0.02626656   -0.00971332
     atom   25 type  3   force =    -0.00311990    0.00332199    0.00477179
     atom   26 type  1   force =     0.00789040    0.00024187    0.00264550
     atom   27 type  1   force =     0.00486555    0.00432249   -0.00366040
     atom   28 type  3   force =     0.13262603    0.00311995    0.01792557
     atom   29 type  2   force =    -0.00397426   -0.04509986   -0.02104253
     atom   30 type  2   force =     0.00205812    0.01430630   -0.00397513
     atom   31 type  2   force =    -0.00211378   -0.00279683   -0.04510527
     atom   32 type  2   force =    -0.00369280    0.00222517    0.00575202
     atom   33 type  1   force =    -0.00132907   -0.00209098   -0.00410446
     atom   34 type  3   force =    -0.01843099   -0.00679087   -0.00713523
     atom   35 type  3   force =    -0.05218550   -0.00174693   -0.00080167
     atom   36 type  1   force =     0.00877731   -0.00260636   -0.00203220
     atom   37 type  2   force =    -0.02356356    0.00029886    0.02353309
     atom   38 type  2   force =     0.01135578    0.01618828   -0.03781580
     atom   39 type  2   force =     0.01190843    0.00283448    0.01871249
     atom   40 type  2   force =     0.00188350   -0.03403877    0.00203212
     atom   41 type  3   force =    -0.00348482   -0.00587867    0.00922210
     atom   42 type  1   force =     0.01364015    0.00087591    0.00087247
     atom   43 type  3   force =     0.05362250   -0.01188146   -0.01281769
     atom   44 type  3   force =    -0.13967402   -0.00591257    0.00482956
     atom   45 type  2   force =     0.01275907   -0.00384469   -0.00029297
     atom   46 type  2   force =    -0.01578666    0.00412351    0.03573662
     atom   47 type  2   force =     0.01938566    0.00189662   -0.04241768
     atom   48 type  2   force =     0.00088309    0.02183696   -0.00052810
     atom   49 type  3   force =    -0.00400806   -0.00059392    0.00141278
     atom   50 type  3   force =     0.02514001    0.00437660   -0.00038458
     atom   51 type  3   force =     0.00080745    0.00565773   -0.00745497
     atom   52 type  1   force =    -0.00861704    0.00161969    0.00028444
     atom   53 type  2   force =    -0.00515554    0.00216586    0.02945433
     atom   54 type  2   force =     0.00837429   -0.01437329    0.04821100
     atom   55 type  2   force =     0.00761205    0.00011463    0.01916908
     atom   56 type  2   force =     0.00211845    0.03469522    0.01425714
     atom   57 type  1   force =     0.00016147    0.00096828    0.00359859
     atom   58 type  1   force =    -0.00758509    0.00247293    0.00180703
     atom   59 type  3   force =     0.01837542    0.01620132   -0.02392802
     atom   60 type  3   force =    -0.12610522    0.00499669    0.01125699
     atom   61 type  2   force =     0.01446351    0.00344720   -0.00476168
     atom   62 type  2   force =    -0.01505553   -0.00300379   -0.04992148
     atom   63 type  2   force =     0.00541970   -0.00560548   -0.03579794
     atom   64 type  2   force =     0.00540685   -0.01669216   -0.01090798

     Total force =     0.333778     Total SCF correction =     0.002806


     Computing stress (Cartesian axis) and pressure

          total   stress  (Ry/bohr**3)                   (kbar)     P=      343.09
   0.00883283   0.00000639   0.00000173         1299.35        0.94        0.25
   0.00000639  -0.00103974   0.00002212            0.94     -152.95        3.25
   0.00000173   0.00002212  -0.00079627            0.25        3.25     -117.14

     Energy error            =      1.6E+00 Ry
     Gradient error          =      1.4E-01 Ry/Bohr
     Cell gradient error     =      1.3E+03 kbar

     number of scf cycles    =   2
     number of bfgs steps    =   1

     enthalpy           old  =   -4469.9501358074 Ry
     enthalpy           new  =   -4471.5914002110 Ry

     CASE: enthalpy          _new < enthalpy          _old

     new trust radius        =       0.7324727705 bohr
     new conv_thr            =       0.0000010000 Ry

     new unit-cell volume =   4139.46199 a.u.^3 (   613.40498 Ang^3 )
     density =      4.45534 g/cm^3

CELL_PARAMETERS (angstrom)
   9.144595944   0.002564758  -0.000952410
   0.002678658   8.172259649   0.005224095
  -0.001016645   0.005221054   8.208066053

ATOMIC_POSITIONS (angstrom)
Al           -0.0001254799       -0.0015605977       -0.0004498397
Ti            2.2881602166       -0.0001224518       -0.0021241143
Al            0.0013534467        2.0445779826        2.0527644266
Ti            2.3025963038        2.0434987718        2.0401828460
N             2.2929104381       -0.0024274405        2.0599603284
N             0.0049215334       -0.0029119296        2.0652457844
N             2.2775677883        2.0448040376       -0.0058566306
N             0.0037735174        2.0410701881       -0.0000034342
Al           -0.0008046584        0.0011778795        4.1056359648
Al            2.2767142531        0.0034592956        4.1075713542
Al           -0.0106219961        2.0445865115        6.1566484183
Al            2.2854086841        2.0454221410        6.1571142358
N             2.2868348880        0.0211899137        6.1486829098
N            -0.0018242155       -0.0016584935        6.1442123236
N             2.2840958941        2.0446754394        4.1273324259
N            -0.0025950069        2.0445417815        4.1054397118
Ti            0.0036230039        4.0868539254        0.0039716676
Ti            2.2728981144        4.0849202200        0.0040738726
Al            0.0034867264        6.1311827636        2.0570449225
Al            2.2854875322        6.1335321976        2.0553783416
N             2.2904454205        4.0930565571        2.0615590794
N             0.0020073703        4.0895027665        2.0572849037
N             2.2843143003        6.1278796934        0.0088796322
N            -0.0025727474        6.1325696638        0.0023454191
Ti           -0.0021348864        4.0894830898        4.1080788577
Al            2.2890396783        4.0889889110        4.1080498245
Al            0.0068098149        6.1358931977        6.1572053958
Ti            2.3424074639        6.1381420555        6.1708517502
N             2.2824614731        4.0742607445        6.1509924512
N             0.0017301295        4.0932619816        6.1559143042
N             2.2856915909        6.1319110372        4.0930860409
N             0.0002551177        6.1342676267        4.1073615370
Al            4.5716952293        0.0002303485       -0.0028467008
Ti            6.8530740034       -0.0034428667       -0.0040301227
Ti            4.5735740862        2.0459250955        2.0474559393
Al            6.8654329016        2.0443780543        2.0504120755
N             6.8474511842        0.0070248574        2.0612542445
N             4.5732090366        0.0103012699        2.0406799873
N             6.8635933678        2.0485152549        0.0070961118
N             4.5744214002        2.0371212673        0.0032257684
Ti            4.5716004193        0.0016704137        4.1116446382
Al            6.8657688373        0.0035470525        4.1039701041
Ti            4.5875882032        2.0423723138        6.1516316500
Ti            6.8071923052        2.0445356703        6.1582179191
N             6.8615482470        0.0037180962        6.1560611762
N             4.5641415326        0.0066237876        6.1651289587
N             6.8685636374        2.0498967634        4.0891884157
N             4.5770127361        2.0604590120        4.1050440002
Ti            4.5696210554        4.0870704691        0.0047274857
Ti            6.8739538760        4.0886587319        0.0026152383
Ti            4.5817386819        6.1353405963        2.0486950244
Al            6.8544847879        6.1339148577        2.0554639270
N             6.8587801290        4.0856714694        2.0644032848
N             4.5722943644        4.0801716920        2.0785314405
N             6.8648182989        6.1295064419        0.0083283445
N             4.5775079566        6.1399645903        0.0104384179
Al            4.5725708032        4.0910373575        4.1090772019
Al            6.8585775947        4.0924263035        4.1068227323
Ti            4.5799526660        6.1412920205        6.1461985636
Ti            6.8166097417        6.1409965109        6.1679803273
N             6.8645112372        4.0939371722        6.1579839255
N             4.5677242181        4.0908414181        6.1319993467
N             6.8639985470        6.1324193914        4.0926634587
N             4.5728641810        6.1189361805        4.1016081142



     Writing config-only to output data dir ../output/TiAlN.save/
     NEW-OLD atomic charge density approx. for the potential

     Check: negative core charge=   -0.000002
     extrapolated charge  413.81965, renormalised to  400.00000

     total cpu time spent up to now is      192.3 secs

     Self-consistent Calculation

     iteration #  1     ecut=   135.00 Ry     beta= 0.20
     Davidson diagonalization with overlap
     ethr =  1.00E-06,  avg # of iterations = 26.0

     total cpu time spent up to now is      210.0 secs

     total energy              =   -4468.06883172 Ry
     estimated scf accuracy    <      36.89709030 Ry

     iteration #  2     ecut=   135.00 Ry     beta= 0.20
     Davidson diagonalization with overlap
     ethr =  9.22E-03,  avg # of iterations =  2.0

     total cpu time spent up to now is      213.3 secs

     total energy              =   -4472.96131941 Ry
     estimated scf accuracy    <       1.70884468 Ry

     iteration #  3     ecut=   135.00 Ry     beta= 0.20
     Davidson diagonalization with overlap
     ethr =  4.27E-04,  avg # of iterations = 10.0

     total cpu time spent up to now is      218.7 secs

     total energy              =   -4473.42900977 Ry
     estimated scf accuracy    <       2.04662976 Ry

     iteration #  4     ecut=   135.00 Ry     beta= 0.20
     Davidson diagonalization with overlap
     ethr =  4.27E-04,  avg # of iterations =  1.0

     total cpu time spent up to now is      221.7 secs

     total energy              =   -4473.34329193 Ry
     estimated scf accuracy    <       1.28853187 Ry

     iteration #  5     ecut=   135.00 Ry     beta= 0.20
     Davidson diagonalization with overlap
     ethr =  3.22E-04,  avg # of iterations =  1.0

     total cpu time spent up to now is      224.7 secs

     total energy              =   -4473.35203924 Ry
     estimated scf accuracy    <       0.47776764 Ry

     iteration #  6     ecut=   135.00 Ry     beta= 0.20
     Davidson diagonalization with overlap
     ethr =  1.19E-04,  avg # of iterations =  2.0

     total cpu time spent up to now is      227.8 secs

     total energy              =   -4473.30484730 Ry
     estimated scf accuracy    <       0.38812533 Ry

     iteration #  7     ecut=   135.00 Ry     beta= 0.20
     Davidson diagonalization with overlap
     ethr =  9.70E-05,  avg # of iterations =  2.0

     total cpu time spent up to now is      231.0 secs

     total energy              =   -4473.32188613 Ry
     estimated scf accuracy    <       0.05441943 Ry

     iteration #  8     ecut=   135.00 Ry     beta= 0.20
     Davidson diagonalization with overlap
     ethr =  1.36E-05,  avg # of iterations = 15.0

     total cpu time spent up to now is      236.1 secs

     total energy              =   -4473.32494460 Ry
     estimated scf accuracy    <       0.05233806 Ry

     iteration #  9     ecut=   135.00 Ry     beta= 0.20
     Davidson diagonalization with overlap
     ethr =  1.31E-05,  avg # of iterations =  1.0

     total cpu time spent up to now is      239.1 secs

     total energy              =   -4473.31430097 Ry
     estimated scf accuracy    <       0.05129329 Ry

     iteration # 10     ecut=   135.00 Ry     beta= 0.20
     Davidson diagonalization with overlap
     ethr =  1.28E-05,  avg # of iterations =  3.0

     total cpu time spent up to now is      242.3 secs

     total energy              =   -4473.31706028 Ry
     estimated scf accuracy    <       0.01197121 Ry

     iteration # 11     ecut=   135.00 Ry     beta= 0.20
     Davidson diagonalization with overlap
     ethr =  2.99E-06,  avg # of iterations =  6.0

     total cpu time spent up to now is      245.8 secs

     total energy              =   -4473.31723391 Ry
     estimated scf accuracy    <       0.00585141 Ry

     iteration # 12     ecut=   135.00 Ry     beta= 0.20
     Davidson diagonalization with overlap
     ethr =  1.46E-06,  avg # of iterations =  2.0

     total cpu time spent up to now is      249.0 secs

     total energy              =   -4473.31669845 Ry
     estimated scf accuracy    <       0.00375505 Ry

     iteration # 13     ecut=   135.00 Ry     beta= 0.20
     Davidson diagonalization with overlap
     ethr =  9.39E-07,  avg # of iterations =  7.0

     total cpu time spent up to now is      252.7 secs

     total energy              =   -4473.31720253 Ry
     estimated scf accuracy    <       0.00108635 Ry

     iteration # 14     ecut=   135.00 Ry     beta= 0.20
     Davidson diagonalization with overlap
     ethr =  2.72E-07,  avg # of iterations =  6.0

     total cpu time spent up to now is      256.2 secs

     total energy              =   -4473.31716523 Ry
     estimated scf accuracy    <       0.00043367 Ry

     iteration # 15     ecut=   135.00 Ry     beta= 0.20
     Davidson diagonalization with overlap
     ethr =  1.08E-07,  avg # of iterations =  7.0

     total cpu time spent up to now is      259.9 secs

     total energy              =   -4473.31720827 Ry
     estimated scf accuracy    <       0.00007225 Ry

     iteration # 16     ecut=   135.00 Ry     beta= 0.20
     Davidson diagonalization with overlap
     ethr =  1.81E-08,  avg # of iterations =  5.0

     total cpu time spent up to now is      263.5 secs

     total energy              =   -4473.31721405 Ry
     estimated scf accuracy    <       0.00002968 Ry

     iteration # 17     ecut=   135.00 Ry     beta= 0.20
     Davidson diagonalization with overlap
     ethr =  7.42E-09,  avg # of iterations =  2.0

     total cpu time spent up to now is      266.8 secs

     total energy              =   -4473.31721418 Ry
     estimated scf accuracy    <       0.00000960 Ry

     iteration # 18     ecut=   135.00 Ry     beta= 0.20
     Davidson diagonalization with overlap
     ethr =  2.40E-09,  avg # of iterations =  6.0

     total cpu time spent up to now is      270.5 secs

     total energy              =   -4473.31721551 Ry
     estimated scf accuracy    <       0.00000210 Ry

     iteration # 19     ecut=   135.00 Ry     beta= 0.20
     Davidson diagonalization with overlap
     ethr =  5.24E-10,  avg # of iterations =  6.0

     total cpu time spent up to now is      274.2 secs

     total energy              =   -4473.31721552 Ry
     estimated scf accuracy    <       0.00000125 Ry

     iteration # 20     ecut=   135.00 Ry     beta= 0.20
     Davidson diagonalization with overlap
     ethr =  3.11E-10,  avg # of iterations =  3.0

     total cpu time spent up to now is      277.4 secs

     End of self-consistent calculation

          k = 0.0000 0.0000 0.0000 (102399 PWs)   bands (ev):

   -43.9223 -43.9104 -43.7665 -43.6637 -43.6464 -43.5162 -43.4143 -43.3997
   -43.3898 -43.3728 -43.3567 -43.3486 -43.3141 -43.2319 -42.9382 -42.7044
   -21.3915 -20.7220 -20.5312 -20.4018 -20.3469 -20.3051 -20.2737 -20.2506
   -20.2242 -20.2180 -20.1925 -20.1476 -20.1308 -20.0740 -20.0696 -20.0295
   -19.9985 -19.9600 -19.9555 -19.9090 -19.8838 -19.8799 -19.8579 -19.8215
   -19.7975 -19.7754 -19.7677 -19.7482 -19.7380 -19.7286 -19.7144 -19.7062
   -19.6820 -19.6723 -19.6567 -19.6377 -19.6313 -19.6118 -19.5938 -19.5172
   -19.4121 -19.3522 -19.2875 -19.1257 -19.0975 -18.9078 -18.8674 -18.4508
    -3.9852  -2.8770  -2.8622  -2.7740  -2.7212  -2.6324  -2.5605  -2.2325
    -2.1980  -1.9748  -1.8370  -1.6682  -1.6397  -1.5760  -1.5286  -1.5191
    -1.4961  -1.3678  -1.0576  -1.0474  -0.9830  -0.9774  -0.9442  -0.9384
    -0.8200   0.0710   0.0782   0.1864   0.2812   0.5093   0.6429   0.6580
     3.9152   4.3214   5.4404   5.4822   5.5654   6.0577   6.1347   6.1729
     6.2575   6.4699   6.5272   6.5951   6.6552   6.8051   6.8336   6.9184
     6.9702   7.0104   7.0436   7.2077   7.3100   7.4198   7.4532   7.5858
     7.6623   7.7179   7.7964   7.8553   7.9036   7.9095   8.0175   8.0638
     8.1138   8.2169   8.3369   8.4125   8.5281   8.6928   8.7241   8.7544
     8.8126   8.8827   8.9214   8.9376   8.9864   9.0719   9.1862   9.2160
     9.3176   9.5026   9.5119   9.5357   9.6863   9.8045   9.8245   9.8386
     9.8594  10.0491  10.0571  10.0778  10.1628  10.1969  10.2877  10.3423
    10.3442  10.4094  10.4250  10.4689  10.4854  10.5449  10.5905  10.6798
    10.6922  10.7143  10.7349  10.7529  10.7980  10.8059  10.8208  11.0391
    11.0914  11.2415  11.3889  11.3977  11.4827  11.5243  11.8117  11.9769
    12.0012  12.0178  12.0382  12.1253  12.1999  12.2671  12.3234  12.4305
    12.5021  12.6189  12.8458  12.8588  12.9091  12.9961  13.0376  13.0640
    13.1614  13.2879  13.4034  13.4183  13.5691  13.7002  13.7333  13.9512
    14.0745  14.1148  14.1420  14.2024  14.2373  14.3109  14.3387  14.3696
    14.4079  14.4970  14.5625  14.6193  14.6634  14.6788  14.7110  14.7473
    14.8202  14.8838  14.9419  14.9604  14.9949  15.0477  15.1216  15.2180
    15.2286  15.3604  15.3858  15.4182  15.4392  15.4534  15.4799  15.5411

     the Fermi energy is    13.1180 ev

!    total energy              =   -4473.31721536 Ry
     total all-electron energy =    -38595.929801 Ry
     estimated scf accuracy    <       0.00000034 Ry
     smearing contrib. (-TS)   =      -0.00419863 Ry
     internal energy E=F+TS    =   -4473.31301673 Ry

     The total energy is F=E-TS. E is the sum of the following terms:
     one-electron contribution =    -915.54030261 Ry
     hartree contribution      =     706.86750723 Ry
     xc contribution           =    -526.35575886 Ry
     ewald contribution        =   -1882.40562886 Ry
     one-center paw contrib.   =   -1855.87883363 Ry

     convergence has been achieved in  20 iterations

     Forces acting on atoms (cartesian axes, Ry/au):

     atom    1 type  1   force =    -0.00225489   -0.00215993   -0.00094018
     atom    2 type  3   force =     0.01184480    0.00122913   -0.00015178
     atom    3 type  1   force =    -0.00280184   -0.00175453    0.00237742
     atom    4 type  3   force =     0.07298075   -0.00449012   -0.01656239
     atom    5 type  2   force =     0.00792630   -0.01383489    0.01737280
     atom    6 type  2   force =     0.00498654   -0.00200236    0.01763681
     atom    7 type  2   force =    -0.01116107   -0.00303210   -0.01592624
     atom    8 type  2   force =     0.00092768   -0.01663352   -0.00154069
     atom    9 type  1   force =    -0.00123580   -0.00248571    0.00102294
     atom   10 type  1   force =    -0.00183560   -0.00114996    0.00339776
     atom   11 type  1   force =    -0.01693747   -0.00334444   -0.00383283
     atom   12 type  1   force =    -0.00230553   -0.00174961   -0.00006411
     atom   13 type  2   force =     0.00033714    0.03425344   -0.01188545
     atom   14 type  2   force =    -0.00202141   -0.00715598   -0.01624327
     atom   15 type  2   force =    -0.00294964    0.00012262    0.03636085
     atom   16 type  2   force =    -0.00187642   -0.00913025    0.00043546
     atom   17 type  3   force =     0.00368787    0.00215357    0.00084558
     atom   18 type  3   force =    -0.02555973   -0.00175733    0.00238735
     atom   19 type  1   force =    -0.00218229    0.00127326    0.00572121
     atom   20 type  1   force =     0.00836002    0.00368077    0.00286500
     atom   21 type  2   force =     0.00242918    0.01823696    0.01650074
     atom   22 type  2   force =     0.00294836    0.00326701    0.00573276
     atom   23 type  2   force =    -0.00569925    0.00031592    0.01111115
     atom   24 type  2   force =    -0.00865094    0.01594793   -0.00524340
     atom   25 type  3   force =     0.00003398    0.00325589    0.00392461
     atom   26 type  1   force =    -0.00303973    0.00136444    0.00243731
     atom   27 type  1   force =     0.01147688    0.00195020   -0.00783157
     atom   28 type  3   force =     0.08287689    0.00354034    0.01193000
     atom   29 type  2   force =    -0.00278657   -0.03396337   -0.01370048
     atom   30 type  2   force =    -0.00014570    0.00484959   -0.00591280
     atom   31 type  2   force =    -0.00536442   -0.00356180   -0.02720345
     atom   32 type  2   force =    -0.00213674    0.00783025   -0.00135946
     atom   33 type  1   force =    -0.00115924   -0.00277121   -0.00282755
     atom   34 type  3   force =    -0.01086300   -0.00270458    0.00130336
     atom   35 type  3   force =    -0.03734317   -0.00862176   -0.00349882
     atom   36 type  1   force =     0.01269801   -0.00381858   -0.00111140
     atom   37 type  2   force =    -0.01543506    0.00685759    0.01912206
     atom   38 type  2   force =     0.00106651    0.00611970   -0.02110714
     atom   39 type  2   force =     0.00935129   -0.00079012    0.01377830
     atom   40 type  2   force =     0.00154795   -0.02263614    0.00143888
     atom   41 type  3   force =     0.00223647   -0.00210308    0.00639164
     atom   42 type  1   force =     0.00422108   -0.00158098   -0.00107835
     atom   43 type  3   force =     0.02542325   -0.00859646   -0.01007692
     atom   44 type  3   force =    -0.09095342   -0.00378102    0.00099547
     atom   45 type  2   force =     0.01137686   -0.00414658   -0.00037504
     atom   46 type  2   force =    -0.01508119    0.00630762    0.02140521
     atom   47 type  2   force =     0.01376965    0.00367196   -0.02881793
     atom   48 type  2   force =     0.00363887    0.02370531   -0.00281942
     atom   49 type  3   force =    -0.00388247    0.00207471    0.00014499
     atom   50 type  3   force =     0.02410590    0.00083020    0.00082624
     atom   51 type  3   force =    -0.00664358    0.00648318   -0.00738700
     atom   52 type  1   force =    -0.00178891    0.00282432    0.00478677
     atom   53 type  2   force =    -0.00572520   -0.00367973    0.02033581
     atom   54 type  2   force =     0.00189915   -0.00381924    0.04141055
     atom   55 type  2   force =     0.00822270   -0.00115668    0.01245693
     atom   56 type  2   force =     0.00270993    0.02221796    0.01272495
     atom   57 type  1   force =    -0.00008125    0.00176043    0.00284255
     atom   58 type  1   force =     0.00019421    0.00350469    0.00233938
     atom   59 type  3   force =     0.01885819    0.01059254   -0.01755375
     atom   60 type  3   force =    -0.06596460    0.00533533    0.00124421
     atom   61 type  2   force =     0.01249433    0.00338090   -0.00050003
     atom   62 type  2   force =    -0.01452996   -0.00474101   -0.04105592
     atom   63 type  2   force =     0.00429199   -0.00317204   -0.02815382
     atom   64 type  2   force =     0.00147336   -0.02261264   -0.01084585

     Total force =     0.224149     Total SCF correction =     0.001494


     Computing stress (Cartesian axis) and pressure

          total   stress  (Ry/bohr**3)                   (kbar)     P=      242.25
   0.00554777   0.00001029  -0.00000615          816.11        1.51       -0.91
   0.00001029  -0.00033183   0.00000572            1.51      -48.81        0.84
  -0.00000615   0.00000572  -0.00027569           -0.91        0.84      -40.56

     Energy error            =      1.7E+00 Ry
     Gradient error          =      9.1E-02 Ry/Bohr
     Cell gradient error     =      8.2E+02 kbar

     number of scf cycles    =   3
     number of bfgs steps    =   2

     enthalpy           old  =   -4471.5914002110 Ry
     enthalpy           new  =   -4473.3172153582 Ry

     CASE: enthalpy          _new < enthalpy          _old

     new trust radius        =       0.8000000000 bohr
     new conv_thr            =       0.0000010000 Ry

     new unit-cell volume =   4391.69501 a.u.^3 (   650.78206 Ang^3 )
     density =      4.19945 g/cm^3

CELL_PARAMETERS (angstrom)
   9.713085287   0.007680344  -0.004817064
   0.007639253   8.169085397   0.007667211
  -0.004928608   0.007666478   8.201735602

ATOMIC_POSITIONS (angstrom)
Al           -0.0035484475       -0.0038478308        0.0002532328
Ti            2.4348605441        0.0008105754       -0.0012923272
Al           -0.0012779373        2.0413653408        2.0528335700
Ti            2.4609577325        2.0433482620        2.0229928654
N             2.4438412783       -0.0086118247        2.0684187442
N             0.0091334693       -0.0021507317        2.0824773931
N             2.4110490112        2.0432023098       -0.0132267061
N             0.0050795145        2.0410292535       -0.0003622756
Al           -0.0039797044       -0.0003602149        4.1033448048
Al            2.4143533836        0.0056138759        4.1067205909
Al           -0.0392088019        2.0425012144        6.1500579322
Al            2.4223581847        2.0451640025        6.1523278426
N             2.4244323855        0.0433078529        6.1349119626
N            -0.0059474744       -0.0019981030        6.1214711005
N             2.4242130028        2.0447391776        4.1463488015
N            -0.0083514511        2.0377810098        4.1014212547
Ti            0.0112874826        4.0858236939        0.0069254403
Ti            2.3886554909        4.0840148272        0.0072988548
Al            0.0049611453        6.1311697943        2.0613760491
Al            2.4410754581        6.1379154093        2.0562469672
N             2.4437332505        4.1042401307        2.0681044000
N             0.0046674423        4.0896403582        2.0629003480
N             2.4220320102        6.1260202527        0.0117375127
N            -0.0083489834        6.1304997969        0.0042524952
Ti           -0.0029828941        4.0906686461        4.1081544743
Al            2.4240947432        4.0904715892        4.1075523708
Al            0.0248477060        6.1375684945        6.1462955116
Ti            2.5463234995        6.1454451640        6.1790600575
N             2.4182973184        4.0560820255        6.1394865987
N             0.0009293842        4.0919378874        6.1463813730
N             2.4222820944        6.1300769005        4.0793855029
N             0.0009359990        6.1416639663        4.1000652114
Al            4.8548632426        0.0004336029       -0.0074294099
Ti            7.2748819780       -0.0040011176       -0.0048868780
Ti            4.8595355106        2.0420754227        2.0352349506
Al            7.3087843724        2.0440401930        2.0442062296
N             7.2598104014        0.0221546370        2.0701003171
N             4.8495952851        0.0173172819        2.0308950942
N             7.2983184116        2.0532840439        0.0123357907
N             4.8621302280        2.0331542676        0.0047534890
Ti            4.8592973287        0.0048875947        4.1159582192
Al            7.2943050315        0.0053536559        4.0971202640
Ti            4.8756380039        2.0391621336        6.1388193061
Ti            7.1725765676        2.0446004051        6.1507277999
N             7.2929442444        0.0056989638        6.1491692191
N             4.8307717227        0.0155973937        6.1648421572
N             7.3077874370        2.0590010489        4.0679831450
N             4.8704677385        2.0864128498        4.0986131679
Ti            4.8495973099        4.0898891682        0.0063898663
Ti            7.3295879931        4.0894040439        0.0028256096
Ti            4.8707242613        6.1424509400        2.0371131211
Al            7.2809723485        6.1392565728        2.0572699121
N             7.2831746151        4.0791475671        2.0720809451
N             4.8515517956        4.0777047007        2.1104797819
N             7.3042138849        6.1278573166        0.0115557660
N             4.8713249123        6.1478751663        0.0206438113
Al            4.8563306152        4.0954066153        4.1088866190
Al            7.2912724765        4.0995341104        4.1039530530
Ti            4.8806155051        6.1501712327        6.1255931916
Ti            7.2138823363        6.1529808005        6.1663289176
N             7.3005107016        4.1011325464        6.1544662923
N             4.8400016779        4.0908036214        6.0915752116
N             7.2982186408        6.1344868269        4.0697386108
N             4.8546599449        6.0939665485        4.0887924615



     Writing config-only to output data dir ../output/TiAlN.save/
     NEW-OLD atomic charge density approx. for the potential

     Check: negative core charge=   -0.000002
     extrapolated charge  422.97016, renormalised to  400.00000

     total cpu time spent up to now is      292.9 secs

     Self-consistent Calculation

     iteration #  1     ecut=   135.00 Ry     beta= 0.20
     Davidson diagonalization with overlap
     ethr =  1.00E-06,  avg # of iterations = 40.0

     total cpu time spent up to now is      312.6 secs

     total energy              =   -4462.73778066 Ry
     estimated scf accuracy    <      85.71139545 Ry

     iteration #  2     ecut=   135.00 Ry     beta= 0.20
     Davidson diagonalization with overlap
     ethr =  1.00E-02,  avg # of iterations =  6.0

     total cpu time spent up to now is      316.6 secs

     total energy              =   -4474.16900984 Ry
     estimated scf accuracy    <       4.33801457 Ry

     iteration #  3     ecut=   135.00 Ry     beta= 0.20
     Davidson diagonalization with overlap
     ethr =  1.08E-03,  avg # of iterations =  9.0

     total cpu time spent up to now is      321.3 secs

     total energy              =   -4474.68757299 Ry
     estimated scf accuracy    <       4.86006958 Ry

     iteration #  4     ecut=   135.00 Ry     beta= 0.20
     Davidson diagonalization with overlap
     ethr =  1.08E-03,  avg # of iterations =  1.0

     total cpu time spent up to now is      324.3 secs

     total energy              =   -4474.57494938 Ry
     estimated scf accuracy    <       3.27251282 Ry

     iteration #  5     ecut=   135.00 Ry     beta= 0.20
     Davidson diagonalization with overlap
     ethr =  8.18E-04,  avg # of iterations =  1.0

     total cpu time spent up to now is      327.2 secs

     total energy              =   -4474.45625716 Ry
     estimated scf accuracy    <       1.89266667 Ry

     iteration #  6     ecut=   135.00 Ry     beta= 0.20
     Davidson diagonalization with overlap
     ethr =  4.73E-04,  avg # of iterations =  1.0

     total cpu time spent up to now is      330.2 secs

     total energy              =   -4474.47362381 Ry
     estimated scf accuracy    <       0.68841128 Ry

     iteration #  7     ecut=   135.00 Ry     beta= 0.20
     Davidson diagonalization with overlap
     ethr =  1.72E-04,  avg # of iterations =  1.0

     total cpu time spent up to now is      333.1 secs

     total energy              =   -4474.43474761 Ry
     estimated scf accuracy    <       0.53927126 Ry

     iteration #  8     ecut=   135.00 Ry     beta= 0.20
     Davidson diagonalization with overlap
     ethr =  1.35E-04,  avg # of iterations =  2.0

     total cpu time spent up to now is      336.4 secs

     total energy              =   -4474.42939609 Ry
     estimated scf accuracy    <       0.17780992 Ry

     iteration #  9     ecut=   135.00 Ry     beta= 0.20
     Davidson diagonalization with overlap
     ethr =  4.45E-05,  avg # of iterations = 15.0

     total cpu time spent up to now is      340.9 secs

     total energy              =   -4474.43691986 Ry
     estimated scf accuracy    <       0.04702094 Ry

     iteration # 10     ecut=   135.00 Ry     beta= 0.20
     Davidson diagonalization with overlap
     ethr =  1.18E-05,  avg # of iterations =  8.0

     total cpu time spent up to now is      345.0 secs

     total energy              =   -4474.43446043 Ry
     estimated scf accuracy    <       0.02516297 Ry

     iteration # 11     ecut=   135.00 Ry     beta= 0.20
     Davidson diagonalization with overlap
     ethr =  6.29E-06,  avg # of iterations =  2.0

     total cpu time spent up to now is      348.3 secs

     total energy              =   -4474.43550925 Ry
     estimated scf accuracy    <       0.00360722 Ry

     iteration # 12     ecut=   135.00 Ry     beta= 0.20
     Davidson diagonalization with overlap
     c_bands:  1 eigenvalues not converged
     ethr =  9.02E-07,  avg # of iterations = 20.0

     total cpu time spent up to now is      353.8 secs

     total energy              =   -4474.43632776 Ry
     estimated scf accuracy    <       0.00211268 Ry

     iteration # 13     ecut=   135.00 Ry     beta= 0.20
     Davidson diagonalization with overlap
     ethr =  5.28E-07,  avg # of iterations =  2.0

     total cpu time spent up to now is      357.0 secs

     total energy              =   -4474.43602944 Ry
     estimated scf accuracy    <       0.00118765 Ry

     iteration # 14     ecut=   135.00 Ry     beta= 0.20
     Davidson diagonalization with overlap
     ethr =  2.97E-07,  avg # of iterations =  6.0

     total cpu time spent up to now is      360.6 secs

     total energy              =   -4474.43614132 Ry
     estimated scf accuracy    <       0.00035050 Ry

     iteration # 15     ecut=   135.00 Ry     beta= 0.20
     Davidson diagonalization with overlap
     ethr =  8.76E-08,  avg # of iterations =  6.0

     total cpu time spent up to now is      364.1 secs

     total energy              =   -4474.43615248 Ry
     estimated scf accuracy    <       0.00010049 Ry

     iteration # 16     ecut=   135.00 Ry     beta= 0.20
     Davidson diagonalization with overlap
     ethr =  2.51E-08,  avg # of iterations =  5.0

     total cpu time spent up to now is      367.5 secs

     total energy              =   -4474.43615166 Ry
     estimated scf accuracy    <       0.00003648 Ry

     iteration # 17     ecut=   135.00 Ry     beta= 0.20
     Davidson diagonalization with overlap
     ethr =  9.12E-09,  avg # of iterations =  6.0

     total cpu time spent up to now is      371.2 secs

     total energy              =   -4474.43615372 Ry
     estimated scf accuracy    <       0.00001387 Ry

     iteration # 18     ecut=   135.00 Ry     beta= 0.20
     Davidson diagonalization with overlap
     ethr =  3.47E-09,  avg # of iterations =  6.0

     total cpu time spent up to now is      374.9 secs

     total energy              =   -4474.43615337 Ry
     estimated scf accuracy    <       0.00000550 Ry

     iteration # 19     ecut=   135.00 Ry     beta= 0.20
     Davidson diagonalization with overlap
     ethr =  1.38E-09,  avg # of iterations =  6.0

     total cpu time spent up to now is      378.8 secs

     total energy              =   -4474.43615425 Ry
     estimated scf accuracy    <       0.00000264 Ry

     iteration # 20     ecut=   135.00 Ry     beta= 0.20
     Davidson diagonalization with overlap
     ethr =  6.60E-10,  avg # of iterations =  3.0

     total cpu time spent up to now is      382.0 secs

     End of self-consistent calculation

          k = 0.0000 0.0000 0.0000 (102399 PWs)   bands (ev):

   -44.8908 -44.8246 -44.7543 -44.7381 -44.7206 -44.5751 -44.4531 -44.4199
   -44.4092 -44.3976 -44.3846 -44.3743 -44.3548 -44.1349 -43.9297 -43.8266
   -21.9584 -21.4744 -21.2996 -21.2782 -21.2482 -21.2394 -21.2242 -21.1990
   -21.1844 -21.1586 -21.1423 -21.1315 -21.1082 -21.0632 -21.0478 -21.0402
   -21.0019 -20.9881 -20.9384 -20.9365 -20.9218 -20.9103 -20.8571 -20.8315
   -20.8036 -20.7890 -20.7624 -20.7521 -20.7316 -20.7187 -20.7091 -20.6936
   -20.6788 -20.6618 -20.6474 -20.6214 -20.6147 -20.5526 -20.5507 -20.4955
   -20.4498 -20.3500 -20.3362 -20.2494 -20.2440 -20.1602 -19.9214 -19.7190
    -4.5628  -3.6492  -3.5425  -3.4051  -3.3443  -3.2675  -3.2199  -2.8532
    -2.8317  -2.6533  -2.5450  -2.4813  -2.4497  -2.4218  -2.3467  -2.3340
    -2.2838  -2.2062  -2.0502  -1.8977  -1.8574  -1.8002  -1.7878  -1.7671
    -1.7252  -1.2129  -1.1874  -1.0729  -0.9381  -0.7324  -0.6439  -0.6189
     3.3163   3.7523   4.6564   4.7026   4.8398   5.2523   5.4545   5.4657
     5.5070   5.8344   5.8798   6.0526   6.0999   6.1235   6.2106   6.2624
     6.3544   6.4380   6.4757   6.5019   6.5517   6.5975   6.7501   6.8657
     6.8790   6.8990   6.9362   6.9665   7.0164   7.0979   7.1463   7.1922
     7.2110   7.4248   7.4659   7.5651   7.6724   7.7198   7.8909   7.9675
     8.0311   8.0768   8.0970   8.1581   8.2007   8.2299   8.2560   8.2893
     8.3132   8.3481   8.5485   8.5670   8.6289   8.6735   8.8179   8.8978
     8.9167   8.9502   9.0949   9.1402   9.1570   9.1641   9.1875   9.1926
     9.2158   9.2952   9.3427   9.3628   9.3833   9.4161   9.4404   9.5287
     9.5466   9.5999   9.6387   9.6462   9.8688   9.9237   9.9684  10.0155
    10.2171  10.2911  10.4674  10.6104  10.6209  10.6516  10.8460  10.9282
    11.1358  11.1605  11.1847  11.2237  11.3176  11.3642  11.4242  11.6343
    11.6731  11.7884  11.9960  12.0558  12.1411  12.1649  12.2385  12.2549
    12.3588  12.5188  12.5436  12.5972  12.6637  12.7089  12.7365  12.8168
    12.8893  12.9099  12.9479  13.0169  13.0775  13.1218  13.1442  13.1840
    13.2396  13.2627  13.3516  13.4754  13.5515  13.5591  13.6201  13.6792
    13.7522  13.7693  13.7974  13.8786  13.9352  14.0083  14.0437  14.0782
    14.0907  14.1216  14.2111  14.3832  14.4593  14.4987  14.5162  14.5852

     the Fermi energy is    12.3134 ev

!    total energy              =   -4474.43615391 Ry
     total all-electron energy =    -38597.048739 Ry
     estimated scf accuracy    <       0.00000066 Ry
     smearing contrib. (-TS)   =      -0.00402374 Ry
     internal energy E=F+TS    =   -4474.43213017 Ry

     The total energy is F=E-TS. E is the sum of the following terms:
     one-electron contribution =    -986.73739045 Ry
     hartree contribution      =     727.61457456 Ry
     xc contribution           =    -524.33146652 Ry
     ewald contribution        =   -1835.29425330 Ry
[...]
     estimated scf accuracy    <       0.00000707 Ry

     iteration # 54     ecut=   135.00 Ry     beta= 0.20
     Davidson diagonalization with overlap
     ethr =  1.77E-09,  avg # of iterations =  5.0

     negative rho (up, down):  1.925E-02 0.000E+00

     total cpu time spent up to now is     2339.4 secs

     total energy              =   -4478.27741887 Ry
     estimated scf accuracy    <       0.00000789 Ry

     iteration # 55     ecut=   135.00 Ry     beta= 0.20
     Davidson diagonalization with overlap
     ethr =  1.77E-09,  avg # of iterations =  3.0

     negative rho (up, down):  1.945E-02 0.000E+00

     total cpu time spent up to now is     2342.8 secs

     total energy              =   -4478.27742391 Ry
     estimated scf accuracy    <       0.00000824 Ry

     iteration # 56     ecut=   135.00 Ry     beta= 0.20
     Davidson diagonalization with overlap
     ethr =  1.77E-09,  avg # of iterations =  5.0

     negative rho (up, down):  1.925E-02 0.000E+00

     total cpu time spent up to now is     2347.0 secs

     total energy              =   -4478.27728026 Ry
     estimated scf accuracy    <       0.00000643 Ry

     iteration # 57     ecut=   135.00 Ry     beta= 0.20
     Davidson diagonalization with overlap
     ethr =  1.61E-09,  avg # of iterations =  5.0

     negative rho (up, down):  1.936E-02 0.000E+00

     total cpu time spent up to now is     2351.4 secs

     total energy              =   -4478.27741424 Ry
     estimated scf accuracy    <       0.00000965 Ry

     iteration # 58     ecut=   135.00 Ry     beta= 0.20
     Davidson diagonalization with overlap
     ethr =  1.61E-09,  avg # of iterations =  4.0

     negative rho (up, down):  1.945E-02 0.000E+00

     total cpu time spent up to now is     2355.3 secs

     total energy              =   -4478.27745740 Ry
     estimated scf accuracy    <       0.00000743 Ry

     iteration # 59     ecut=   135.00 Ry     beta= 0.20
     Davidson diagonalization with overlap
     ethr =  1.61E-09,  avg # of iterations =  4.0

     negative rho (up, down):  1.937E-02 0.000E+00

     total cpu time spent up to now is     2359.2 secs

     total energy              =   -4478.27743873 Ry
     estimated scf accuracy    <       0.00000621 Ry

     iteration # 60     ecut=   135.00 Ry     beta= 0.20
     Davidson diagonalization with overlap
     ethr =  1.55E-09,  avg # of iterations =  4.0

     negative rho (up, down):  1.938E-02 0.000E+00

     total cpu time spent up to now is     2363.0 secs

     total energy              =   -4478.27746491 Ry
     estimated scf accuracy    <       0.00000691 Ry

     iteration # 61     ecut=   135.00 Ry     beta= 0.20
     Davidson diagonalization with overlap
     ethr =  1.55E-09,  avg # of iterations =  3.0

     negative rho (up, down):  1.995E-02 0.000E+00

     total cpu time spent up to now is     2366.4 secs

     total energy              =   -4478.27636429 Ry
     estimated scf accuracy    <       0.00000653 Ry

     iteration # 62     ecut=   135.00 Ry     beta= 0.20
     Davidson diagonalization with overlap
     ethr =  1.55E-09,  avg # of iterations =  7.0

     negative rho (up, down):  1.932E-02 0.000E+00

     total cpu time spent up to now is     2371.7 secs

     total energy              =   -4478.27534199 Ry
     estimated scf accuracy    <       0.00006546 Ry

     iteration # 63     ecut=   135.00 Ry     beta= 0.20
     Davidson diagonalization with overlap
     ethr =  1.55E-09,  avg # of iterations =  7.0

     negative rho (up, down):  1.919E-02 0.000E+00

     total cpu time spent up to now is     2377.1 secs

     total energy              =   -4478.27735710 Ry
     estimated scf accuracy    <       0.00000778 Ry

     iteration # 64     ecut=   135.00 Ry     beta= 0.20
     Davidson diagonalization with overlap
     ethr =  1.55E-09,  avg # of iterations =  4.0

     negative rho (up, down):  1.902E-02 0.000E+00

     total cpu time spent up to now is     2381.0 secs

     total energy              =   -4478.27723464 Ry
     estimated scf accuracy    <       0.00001014 Ry

     iteration # 65     ecut=   135.00 Ry     beta= 0.20
     Davidson diagonalization with overlap
     ethr =  1.55E-09,  avg # of iterations =  5.0

     negative rho (up, down):  1.902E-02 0.000E+00

     total cpu time spent up to now is     2385.3 secs

     total energy              =   -4478.27729552 Ry
     estimated scf accuracy    <       0.00001568 Ry

     iteration # 66     ecut=   135.00 Ry     beta= 0.20
     Davidson diagonalization with overlap
     ethr =  1.55E-09,  avg # of iterations =  2.0

     negative rho (up, down):  1.896E-02 0.000E+00

     total cpu time spent up to now is     2388.6 secs

     total energy              =   -4478.27726516 Ry
     estimated scf accuracy    <       0.00001597 Ry

     iteration # 67     ecut=   135.00 Ry     beta= 0.20
     Davidson diagonalization with overlap
     ethr =  1.55E-09,  avg # of iterations =  4.0

     negative rho (up, down):  1.903E-02 0.000E+00

     total cpu time spent up to now is     2392.2 secs

     total energy              =   -4478.27724692 Ry
     estimated scf accuracy    <       0.00001717 Ry

     iteration # 68     ecut=   135.00 Ry     beta= 0.20
     Davidson diagonalization with overlap
     ethr =  1.55E-09,  avg # of iterations =  4.0

     negative rho (up, down):  1.905E-02 0.000E+00

     total cpu time spent up to now is     2395.7 secs

     total energy              =   -4478.27722459 Ry
     estimated scf accuracy    <       0.00001997 Ry

     iteration # 69     ecut=   135.00 Ry     beta= 0.20
     Davidson diagonalization with overlap
     ethr =  1.55E-09,  avg # of iterations =  4.0

     negative rho (up, down):  1.904E-02 0.000E+00

     total cpu time spent up to now is     2399.4 secs

     total energy              =   -4478.27724663 Ry
     estimated scf accuracy    <       0.00002174 Ry

     iteration # 70     ecut=   135.00 Ry     beta= 0.20
     Davidson diagonalization with overlap
     ethr =  1.55E-09,  avg # of iterations =  4.0

     negative rho (up, down):  1.912E-02 0.000E+00

     total cpu time spent up to now is     2402.9 secs

     total energy              =   -4478.27717287 Ry
     estimated scf accuracy    <       0.00002023 Ry

     iteration # 71     ecut=   135.00 Ry     beta= 0.20
     Davidson diagonalization with overlap
     ethr =  1.55E-09,  avg # of iterations =  4.0

     negative rho (up, down):  1.980E-02 0.000E+00

     total cpu time spent up to now is     2406.7 secs

     total energy              =   -4478.27556705 Ry
     estimated scf accuracy    <       0.00002580 Ry

     iteration # 72     ecut=   135.00 Ry     beta= 0.20
     Davidson diagonalization with overlap
     ethr =  1.55E-09,  avg # of iterations =  7.0

     negative rho (up, down):  1.904E-02 0.000E+00

     total cpu time spent up to now is     2412.2 secs

     total energy              =   -4478.27557496 Ry
     estimated scf accuracy    <       0.00001634 Ry

     iteration # 73     ecut=   135.00 Ry     beta= 0.20
     Davidson diagonalization with overlap
     ethr =  1.55E-09,  avg # of iterations =  7.0

     negative rho (up, down):  1.927E-02 0.000E+00

     total cpu time spent up to now is     2417.8 secs

     total energy              =   -4478.27725202 Ry
     estimated scf accuracy    <       0.00002013 Ry

     iteration # 74     ecut=   135.00 Ry     beta= 0.20
     Davidson diagonalization with overlap
     ethr =  1.55E-09,  avg # of iterations =  5.0

     negative rho (up, down):  1.947E-02 0.000E+00

     total cpu time spent up to now is     2422.3 secs

     total energy              =   -4478.27739967 Ry
     estimated scf accuracy    <       0.00001172 Ry

     iteration # 75     ecut=   135.00 Ry     beta= 0.20
     Davidson diagonalization with overlap
     ethr =  1.55E-09,  avg # of iterations =  4.0

     negative rho (up, down):  1.966E-02 0.000E+00

     total cpu time spent up to now is     2426.2 secs

     total energy              =   -4478.27744539 Ry
     estimated scf accuracy    <       0.00001003 Ry

     iteration # 76     ecut=   135.00 Ry     beta= 0.20
     Davidson diagonalization with overlap
     ethr =  1.55E-09,  avg # of iterations =  5.0

     negative rho (up, down):  1.964E-02 0.000E+00

     total cpu time spent up to now is     2430.3 secs

     total energy              =   -4478.27748149 Ry
     estimated scf accuracy    <       0.00000866 Ry

     iteration # 77     ecut=   135.00 Ry     beta= 0.20
     Davidson diagonalization with overlap
     ethr =  1.55E-09,  avg # of iterations =  3.0

     negative rho (up, down):  1.987E-02 0.000E+00

     total cpu time spent up to now is     2433.8 secs

     total energy              =   -4478.27742574 Ry
     estimated scf accuracy    <       0.00000887 Ry

     iteration # 78     ecut=   135.00 Ry     beta= 0.20
     Davidson diagonalization with overlap
     ethr =  1.55E-09,  avg # of iterations =  5.0

     negative rho (up, down):  1.938E-02 0.000E+00

     total cpu time spent up to now is     2438.2 secs

     total energy              =   -4478.27697313 Ry
     estimated scf accuracy    <       0.00001308 Ry

     iteration # 79     ecut=   135.00 Ry     beta= 0.20
     Davidson diagonalization with overlap
     ethr =  1.55E-09,  avg # of iterations =  5.0

     negative rho (up, down):  1.937E-02 0.000E+00

     total cpu time spent up to now is     2442.9 secs

     total energy              =   -4478.27741489 Ry
     estimated scf accuracy    <       0.00000986 Ry

     iteration # 80     ecut=   135.00 Ry     beta= 0.20
     Davidson diagonalization with overlap
     ethr =  1.55E-09,  avg # of iterations =  3.0

     negative rho (up, down):  1.950E-02 0.000E+00

     total cpu time spent up to now is     2446.3 secs

     total energy              =   -4478.27743259 Ry
     estimated scf accuracy    <       0.00001016 Ry

     iteration # 81     ecut=   135.00 Ry     beta= 0.20
     Davidson diagonalization with overlap
     ethr =  1.55E-09,  avg # of iterations =  5.0

     negative rho (up, down):  1.958E-02 0.000E+00

     total cpu time spent up to now is     2450.1 secs

     total energy              =   -4478.27746704 Ry
     estimated scf accuracy    <       0.00000951 Ry

     iteration # 82     ecut=   135.00 Ry     beta= 0.20
     Davidson diagonalization with overlap
     ethr =  1.55E-09,  avg # of iterations =  4.0

     negative rho (up, down):  1.950E-02 0.000E+00

     total cpu time spent up to now is     2453.9 secs

     total energy              =   -4478.27749316 Ry
     estimated scf accuracy    <       0.00000865 Ry

     iteration # 83     ecut=   135.00 Ry     beta= 0.20
     Davidson diagonalization with overlap
     ethr =  1.55E-09,  avg # of iterations =  4.0

     negative rho (up, down):  2.003E-02 0.000E+00

     total cpu time spent up to now is     2457.4 secs

     total energy              =   -4478.27678194 Ry
     estimated scf accuracy    <       0.00000672 Ry

     iteration # 84     ecut=   135.00 Ry     beta= 0.20
     Davidson diagonalization with overlap
     ethr =  1.55E-09,  avg # of iterations =  7.0

     negative rho (up, down):  1.921E-02 0.000E+00

     total cpu time spent up to now is     2462.8 secs

     total energy              =   -4478.27497071 Ry
     estimated scf accuracy    <       0.00005999 Ry

     iteration # 85     ecut=   135.00 Ry     beta= 0.20
     Davidson diagonalization with overlap
     ethr =  1.55E-09,  avg # of iterations =  7.0

     negative rho (up, down):  1.912E-02 0.000E+00

     total cpu time spent up to now is     2468.2 secs

     total energy              =   -4478.27689036 Ry
     estimated scf accuracy    <       0.00001114 Ry

     iteration # 86     ecut=   135.00 Ry     beta= 0.20
     Davidson diagonalization with overlap
     ethr =  1.55E-09,  avg # of iterations =  5.0

     negative rho (up, down):  1.903E-02 0.000E+00

     total cpu time spent up to now is     2472.9 secs

     total energy              =   -4478.27721894 Ry
     estimated scf accuracy    <       0.00002556 Ry

     iteration # 87     ecut=   135.00 Ry     beta= 0.20
     Davidson diagonalization with overlap
     ethr =  1.55E-09,  avg # of iterations =  5.0

     negative rho (up, down):  1.906E-02 0.000E+00

     total cpu time spent up to now is     2477.0 secs

     total energy              =   -4478.27722866 Ry
     estimated scf accuracy    <       0.00001945 Ry

     iteration # 88     ecut=   135.00 Ry     beta= 0.20
     Davidson diagonalization with overlap
     ethr =  1.55E-09,  avg # of iterations =  4.0

     negative rho (up, down):  1.908E-02 0.000E+00

     total cpu time spent up to now is     2480.6 secs

     total energy              =   -4478.27721801 Ry
     estimated scf accuracy    <       0.00002137 Ry

     iteration # 89     ecut=   135.00 Ry     beta= 0.20
     Davidson diagonalization with overlap
     ethr =  1.55E-09,  avg # of iterations =  4.0

     negative rho (up, down):  1.912E-02 0.000E+00

     total cpu time spent up to now is     2484.0 secs

     total energy              =   -4478.27717890 Ry
     estimated scf accuracy    <       0.00002267 Ry

     iteration # 90     ecut=   135.00 Ry     beta= 0.20
     Davidson diagonalization with overlap
     ethr =  1.55E-09,  avg # of iterations =  4.0

     negative rho (up, down):  1.918E-02 0.000E+00

     total cpu time spent up to now is     2487.6 secs

     total energy              =   -4478.27714765 Ry
     estimated scf accuracy    <       0.00002546 Ry

     iteration # 91     ecut=   135.00 Ry     beta= 0.20
     Davidson diagonalization with overlap
     ethr =  1.55E-09,  avg # of iterations =  4.0

     negative rho (up, down):  1.918E-02 0.000E+00

     total cpu time spent up to now is     2491.3 secs

     total energy              =   -4478.27714833 Ry
     estimated scf accuracy    <       0.00002849 Ry

     iteration # 92     ecut=   135.00 Ry     beta= 0.20
     Davidson diagonalization with overlap
     ethr =  1.55E-09,  avg # of iterations =  2.0

     negative rho (up, down):  1.930E-02 0.000E+00

     total cpu time spent up to now is     2494.5 secs

     total energy              =   -4478.27707835 Ry
     estimated scf accuracy    <       0.00002891 Ry

     iteration # 93     ecut=   135.00 Ry     beta= 0.20
     Davidson diagonalization with overlap
     ethr =  1.55E-09,  avg # of iterations =  4.0

     negative rho (up, down):  2.017E-02 0.000E+00

     total cpu time spent up to now is     2498.3 secs

     total energy              =   -4478.27298725 Ry
     estimated scf accuracy    <       0.00003417 Ry

     iteration # 94     ecut=   135.00 Ry     beta= 0.20
     Davidson diagonalization with overlap
     ethr =  1.55E-09,  avg # of iterations =  8.0

     negative rho (up, down):  2.026E-02 0.000E+00

     total cpu time spent up to now is     2504.3 secs

     total energy              =   -4478.26932514 Ry
     estimated scf accuracy    <       0.00006096 Ry

     iteration # 95     ecut=   135.00 Ry     beta= 0.20
     Davidson diagonalization with overlap
     ethr =  1.55E-09,  avg # of iterations =  8.0

     negative rho (up, down):  2.010E-02 0.000E+00

     total cpu time spent up to now is     2510.8 secs

     total energy              =   -4478.27684963 Ry
     estimated scf accuracy    <       0.00006978 Ry

     iteration # 96     ecut=   135.00 Ry     beta= 0.20
     Davidson diagonalization with overlap
     ethr =  1.55E-09,  avg # of iterations =  3.0

     negative rho (up, down):  2.025E-02 0.000E+00

     total cpu time spent up to now is     2514.2 secs

     total energy              =   -4478.27684301 Ry
     estimated scf accuracy    <       0.00006195 Ry

     iteration # 97     ecut=   135.00 Ry     beta= 0.20
     Davidson diagonalization with overlap
     ethr =  1.55E-09,  avg # of iterations =  3.0

     negative rho (up, down):  2.111E-02 0.000E+00

     total cpu time spent up to now is     2517.6 secs

     total energy              =   -4478.27632384 Ry
     estimated scf accuracy    <       0.00006893 Ry

     iteration # 98     ecut=   135.00 Ry     beta= 0.20
     Davidson diagonalization with overlap
     ethr =  1.55E-09,  avg # of iterations =  5.0

     negative rho (up, down):  2.122E-02 0.000E+00

     total cpu time spent up to now is     2522.4 secs

     total energy              =   -4478.27649942 Ry
     estimated scf accuracy    <       0.00012435 Ry

     iteration # 99     ecut=   135.00 Ry     beta= 0.20
     Davidson diagonalization with overlap
     ethr =  1.55E-09,  avg # of iterations =  3.0

     negative rho (up, down):  2.066E-02 0.000E+00

     total cpu time spent up to now is     2525.8 secs

     total energy              =   -4478.27662436 Ry
     estimated scf accuracy    <       0.00013276 Ry

     iteration #100     ecut=   135.00 Ry     beta= 0.20
     Davidson diagonalization with overlap
     ethr =  1.55E-09,  avg # of iterations =  5.0

     negative rho (up, down):  2.024E-02 0.000E+00

     total cpu time spent up to now is     2530.0 secs

     total energy              =   -4478.27677623 Ry
     estimated scf accuracy    <       0.00009276 Ry

     End of self-consistent calculation

     convergence NOT achieved after 100 iterations: stopping

     Writing config to output data dir ../output/TiAlN.save/
     Message from routine punch:
     wavefunctions written to file
 
     init_run     :      2.96s CPU      3.26s WALL (       1 calls)
     electrons    :   2176.67s CPU   2255.35s WALL (      19 calls)
     update_pot   :     28.83s CPU     29.01s WALL (      18 calls)
     forces       :     32.32s CPU     33.93s WALL (      18 calls)
     stress       :    192.29s CPU    194.76s WALL (      18 calls)

     Called by init_run:
     wfcinit      :      1.13s CPU      1.18s WALL (       1 calls)
     potinit      :      0.60s CPU      0.63s WALL (       1 calls)
     hinit0       :      0.81s CPU      0.98s WALL (       1 calls)

     Called by electrons:
     c_bands      :   1622.88s CPU   1645.47s WALL (     528 calls)
     sum_band     :    261.21s CPU    287.71s WALL (     528 calls)
     v_of_rho     :     17.34s CPU     17.71s WALL (     547 calls)
     newd         :    102.61s CPU    125.64s WALL (     547 calls)
     PAW_pot      :    129.02s CPU    130.08s WALL (     565 calls)
     mix_rho      :     54.86s CPU     57.70s WALL (     528 calls)

     Called by c_bands:
     init_us_2    :     17.69s CPU     17.90s WALL (    1075 calls)
     init_us_2:cp :     17.68s CPU     17.90s WALL (    1075 calls)
     cegterg      :   1550.41s CPU   1572.23s WALL (     544 calls)

     Called by *egterg:
     cdiaghg      :    173.42s CPU    175.24s WALL (    3798 calls)
     h_psi        :    750.05s CPU    760.65s WALL (    3833 calls)
     s_psi        :    182.49s CPU    183.93s WALL (    3833 calls)
     g_psi        :      3.57s CPU      3.62s WALL (    3288 calls)

     Called by h_psi:
     h_psi:calbec :    177.08s CPU    178.58s WALL (    3833 calls)
     vloc_psi     :    381.18s CPU    387.42s WALL (    3833 calls)
     add_vuspsi   :    184.35s CPU    186.10s WALL (    3833 calls)

     General routines
     calbec       :    249.33s CPU    251.49s WALL (    4469 calls)
     fft          :     13.67s CPU     14.03s WALL (    6486 calls)
     ffts         :     23.61s CPU     24.04s WALL (   17838 calls)
     fftw         :    390.64s CPU    397.04s WALL (  818804 calls)
     davcio       :      0.00s CPU      0.06s WALL (      19 calls)
 
     Parallel routines
 
     PWSCF        :  40m44.46s CPU  42m10.67s WALL

 
   This run was terminated on:   9:48: 0   7May2026            

=------------------------------------------------------------------------------=
   JOB DONE.
=------------------------------------------------------------------------------=
