
     Program PWSCF v.7.1 starts on  2May2026 at 17:36:10 

     This program is part of the open-source Quantum ESPRESSO suite
     for quantum simulation of materials; please cite
         "P. Giannozzi et al., J. Phys.:Condens. Matter 21 395502 (2009);
         "P. Giannozzi et al., J. Phys.:Condens. Matter 29 465901 (2017);
         "P. Giannozzi et al., J. Chem. Phys. 152 154105 (2020);
          URL http://www.quantum-espresso.org", 
     in publications or presentations arising from this work. More details at
     http://www.quantum-espresso.org/quote

     Parallel version (MPI & OpenMP), running on     128 processor cores
     Number of MPI processes:               128
     Threads/MPI process:                     1

     MPI processes distributed on     4 nodes
     90013 MiB available memory on the printing compute node when the environment starts
 
     Reading input from TiAlN_relax.in

     Current dimensions of program PWSCF are:
     Max number of different atomic species (ntypx) = 10
     Max number of k-points (npk) = 150000
     Max angular momentum in pseudopotentials (lmaxx) =  4
     file Al.pbe-n-kjpaw_psl.1.0.0.UPF: wavefunction(s)  3S 3P renormalized
     file N.pbe-n-kjpaw_psl.1.0.0.UPF: wavefunction(s)  2S renormalized
     file Ti.pbe-spn-kjpaw_psl.1.0.0.UPF: wavefunction(s)  3S 3P 3D renormalized
 
     K-points division:     npool     =       8
     R & G space division:  proc/nbgrp/npool/nimage =      16
     Subspace diagonalization in iterative solution of the eigenvalue problem:
     one sub-group per band group will be used
     scalapack distributed-memory algorithm (size of sub-group:  4*  4 procs)

 
     Parallelization info
     --------------------
     sticks:   dense  smooth     PW     G-vecs:    dense   smooth      PW
     Min        1767    1767    454               196497   196497   25624
     Max        1768    1768    455               196501   196501   25629
     Sum       28279   28279   7267              3143981  3143981  410005
 
     Using Slab Decomposition
 


     bravais-lattice index     =            0
     lattice parameter (alat)  =      22.6626  a.u.
     unit-cell volume          =    8230.2713 (a.u.)^3
     number of atoms/cell      =          128
     number of atomic types    =            3
     number of electrons       =       800.00
     number of Kohn-Sham states=          480
     kinetic-energy cutoff     =     200.0000  Ry
     charge density cutoff     =     800.0000  Ry
     scf convergence threshold =      1.0E-06
     mixing beta               =       0.2000
     number of iterations used =            8  local-TF  mixing
     energy convergence thresh.=      1.0E-05
     force convergence thresh. =      1.0E-04
     press convergence thresh. =      5.0E-01
     Exchange-correlation= SLA  PW   PBX  PBC
                           (   1   4   3   4   0   0   0)
     nstep                     =           50


     celldm(1)=  22.662599  celldm(2)=   0.000000  celldm(3)=   0.000000
     celldm(4)=   0.000000  celldm(5)=   0.000000  celldm(6)=   0.000000

     crystal axes: (cart. coord. in units of alat)
               a(1) = (   1.000000   0.000000   0.000000 )  
               a(2) = (   0.500000   0.866025   0.000000 )  
               a(3) = (   0.500000   0.288675   0.816497 )  

     reciprocal axes: (cart. coord. in units 2 pi/alat)
               b(1) = (  1.000000 -0.577350 -0.408248 )  
               b(2) = (  0.000000  1.154701 -0.408248 )  
               b(3) = (  0.000000  0.000000  1.224745 )  


     PseudoPot. # 1 for Al read from file:
     ../../pseudo/Al.pbe-n-kjpaw_psl.1.0.0.UPF
     MD5 check sum: 502b6b27b9c6270cab5dd1084b96fa6d
     Pseudo is Projector augmented-wave + core cor, Zval =  3.0
     Generated using &quot;atomic&quot; code by A. Dal Corso  v.6.3
     Shape of augmentation charge: PSQ
     Using radial grid of 1135 points,  6 beta functions with: 
                l(1) =   0
                l(2) =   0
                l(3) =   1
                l(4) =   1
                l(5) =   2
                l(6) =   2
     Q(r) pseudized with 0 coefficients 


     PseudoPot. # 2 for N  read from file:
     ../../pseudo/N.pbe-n-kjpaw_psl.1.0.0.UPF
     MD5 check sum: 14c48229446f9f2d411169a3abcbc3fa
     Pseudo is Projector augmented-wave + core cor, Zval =  5.0
     Generated using &quot;atomic&quot; code by A. Dal Corso  v.6.3
     Shape of augmentation charge: PSQ
     Using radial grid of 1085 points,  4 beta functions with: 
                l(1) =   0
                l(2) =   0
                l(3) =   1
                l(4) =   1
     Q(r) pseudized with 0 coefficients 


     PseudoPot. # 3 for Ti read from file:
     ../../pseudo/Ti.pbe-spn-kjpaw_psl.1.0.0.UPF
     MD5 check sum: 01f69b0d8ba4438b2e03ac6ea4af1c0b
     Pseudo is Projector augmented-wave + core cor, Zval = 12.0
     Generated using &quot;atomic&quot; code by A. Dal Corso  v.6.2.2
     Shape of augmentation charge: PSQ
     Using radial grid of 1177 points,  6 beta functions with: 
                l(1) =   0
                l(2) =   0
                l(3) =   1
                l(4) =   1
                l(5) =   2
                l(6) =   2
     Q(r) pseudized with 0 coefficients 


     atomic species   valence    mass     pseudopotential
        Al             3.00    26.98200     Al( 1.00)
        N              5.00    14.00700     N ( 1.00)
        Ti            12.00    47.86700     Ti( 1.00)

     No symmetry found



   Cartesian axes

     site n.     atom                  positions (alat units)
         1           Ti  tau(   1) = (   0.0000000   0.0000000   0.0000000  )
         2           N   tau(   2) = (   1.0000000   0.1443376   0.1020621  )
         3           Ti  tau(   3) = (   0.1250000   0.0721688   0.2041241  )
         4           N   tau(   4) = (   1.1250000   0.2165064   0.3061862  )
         5           Al  tau(   5) = (   0.2500000   0.1443376   0.4082483  )
         6           N   tau(   6) = (   1.2500000   0.2886751   0.5103104  )
         7           Ti  tau(   7) = (   0.3750000   0.2165064   0.6123724  )
         8           N   tau(   8) = (   1.3750000   0.3608439   0.7144345  )
         9           Ti  tau(   9) = (   0.1250000   0.2165064   0.0000000  )
        10           N   tau(  10) = (   1.1250000   0.3608439   0.1020621  )
        11           Ti  tau(  11) = (   0.2500000   0.2886751   0.2041241  )
        12           N   tau(  12) = (   1.2500000   0.4330127   0.3061862  )
        13           Al  tau(  13) = (   0.3750000   0.3608439   0.4082483  )
        14           N   tau(  14) = (   1.3750000   0.5051815   0.5103104  )
        15           Ti  tau(  15) = (   0.5000000   0.4330127   0.6123724  )
        16           N   tau(  16) = (   1.5000000   0.5773503   0.7144345  )
        17           Ti  tau(  17) = (   0.2500000   0.4330127   0.0000000  )
        18           N   tau(  18) = (   1.2500000   0.5773503   0.1020621  )
        19           Ti  tau(  19) = (   0.3750000   0.5051815   0.2041241  )
        20           N   tau(  20) = (   1.3750000   0.6495191   0.3061862  )
        21           Ti  tau(  21) = (   0.5000000   0.5773503   0.4082483  )
        22           N   tau(  22) = (   1.5000000   0.7216878   0.5103104  )
        23           Al  tau(  23) = (   1.6250000   0.6495191   0.6123724  )
        24           N   tau(  24) = (   1.6250000   0.7938566   0.7144345  )
        25           Al  tau(  25) = (   0.3750000   0.6495191   0.0000000  )
        26           N   tau(  26) = (   1.3750000   0.7938566   0.1020621  )
        27           Ti  tau(  27) = (   0.5000000   0.7216878   0.2041241  )
        28           N   tau(  28) = (   1.5000000   0.8660254   0.3061862  )
        29           Ti  tau(  29) = (   0.6250000   0.7938566   0.4082483  )
        30           N   tau(  30) = (   1.6250000   0.9381942   0.5103104  )
        31           Al  tau(  31) = (   1.7500000   0.8660254   0.6123724  )
        32           N   tau(  32) = (   1.7500000   1.0103630   0.7144345  )
        33           Ti  tau(  33) = (   0.2500000   0.0000000   0.0000000  )
        34           N   tau(  34) = (   0.2500000   0.1443376   0.1020621  )
        35           Ti  tau(  35) = (   0.3750000   0.0721688   0.2041241  )
        36           N   tau(  36) = (   0.3750000   0.2165064   0.3061862  )
        37           Al  tau(  37) = (   0.5000000   0.1443376   0.4082483  )
        38           N   tau(  38) = (   0.5000000   0.2886751   0.5103104  )
        39           Ti  tau(  39) = (   0.6250000   0.2165064   0.6123724  )
        40           N   tau(  40) = (   0.6250000   0.3608439   0.7144345  )
        41           Ti  tau(  41) = (   0.3750000   0.2165064   0.0000000  )
        42           N   tau(  42) = (   0.3750000   0.3608439   0.1020621  )
        43           Ti  tau(  43) = (   0.5000000   0.2886751   0.2041241  )
        44           N   tau(  44) = (   0.5000000   0.4330127   0.3061862  )
        45           Al  tau(  45) = (   0.6250000   0.3608439   0.4082483  )
        46           N   tau(  46) = (   0.6250000   0.5051815   0.5103104  )
        47           Ti  tau(  47) = (   0.7500000   0.4330127   0.6123724  )
        48           N   tau(  48) = (   0.7500000   0.5773503   0.7144345  )
        49           Al  tau(  49) = (   0.5000000   0.4330127   0.0000000  )
        50           N   tau(  50) = (   0.5000000   0.5773503   0.1020621  )
        51           Ti  tau(  51) = (   0.6250000   0.5051815   0.2041241  )
        52           N   tau(  52) = (   0.6250000   0.6495191   0.3061862  )
        53           Al  tau(  53) = (   0.7500000   0.5773503   0.4082483  )
        54           N   tau(  54) = (   0.7500000   0.7216878   0.5103104  )
        55           Ti  tau(  55) = (   0.8750000   0.6495191   0.6123724  )
        56           N   tau(  56) = (   0.8750000   0.7938566   0.7144345  )
        57           Al  tau(  57) = (   0.6250000   0.6495191   0.0000000  )
        58           N   tau(  58) = (   0.6250000   0.7938566   0.1020621  )
        59           Ti  tau(  59) = (   0.7500000   0.7216878   0.2041241  )
        60           N   tau(  60) = (   0.7500000   0.8660254   0.3061862  )
        61           Ti  tau(  61) = (   0.8750000   0.7938566   0.4082483  )
        62           N   tau(  62) = (   0.8750000   0.9381942   0.5103104  )
        63           Al  tau(  63) = (   1.0000000   0.8660254   0.6123724  )
        64           N   tau(  64) = (   1.0000000   1.0103630   0.7144345  )
        65           Al  tau(  65) = (   0.5000000   0.0000000   0.0000000  )
        66           N   tau(  66) = (   0.5000000   0.1443376   0.1020621  )
        67           Al  tau(  67) = (   0.6250000   0.0721688   0.2041241  )
        68           N   tau(  68) = (   0.6250000   0.2165064   0.3061862  )
        69           Al  tau(  69) = (   0.7500000   0.1443376   0.4082483  )
        70           N   tau(  70) = (   0.7500000   0.2886751   0.5103104  )
        71           Al  tau(  71) = (   0.8750000   0.2165064   0.6123724  )
        72           N   tau(  72) = (   0.8750000   0.3608439   0.7144345  )
        73           Ti  tau(  73) = (   0.6250000   0.2165064   0.0000000  )
        74           N   tau(  74) = (   0.6250000   0.3608439   0.1020621  )
        75           Ti  tau(  75) = (   0.7500000   0.2886751   0.2041241  )
        76           N   tau(  76) = (   0.7500000   0.4330127   0.3061862  )
        77           Ti  tau(  77) = (   0.8750000   0.3608439   0.4082483  )
        78           N   tau(  78) = (   0.8750000   0.5051815   0.5103104  )
        79           Al  tau(  79) = (   1.0000000   0.4330127   0.6123724  )
        80           N   tau(  80) = (   1.0000000   0.5773503   0.7144345  )
        81           Al  tau(  81) = (   0.7500000   0.4330127   0.0000000  )
        82           N   tau(  82) = (   0.7500000   0.5773503   0.1020621  )
        83           Al  tau(  83) = (   0.8750000   0.5051815   0.2041241  )
        84           N   tau(  84) = (   0.8750000   0.6495191   0.3061862  )
        85           Al  tau(  85) = (   1.0000000   0.5773503   0.4082483  )
        86           N   tau(  86) = (   1.0000000   0.7216878   0.5103104  )
        87           Ti  tau(  87) = (   1.1250000   0.6495191   0.6123724  )
        88           N   tau(  88) = (   1.1250000   0.7938566   0.7144345  )
        89           Al  tau(  89) = (   0.8750000   0.6495191   0.0000000  )
        90           N   tau(  90) = (   0.8750000   0.7938566   0.1020621  )
        91           Al  tau(  91) = (   1.0000000   0.7216878   0.2041241  )
        92           N   tau(  92) = (   1.0000000   0.8660254   0.3061862  )
        93           Ti  tau(  93) = (   1.1250000   0.7938566   0.4082483  )
        94           N   tau(  94) = (   1.1250000   0.9381942   0.5103104  )
        95           Al  tau(  95) = (   1.2500000   0.8660254   0.6123724  )
        96           N   tau(  96) = (   1.2500000   1.0103630   0.7144345  )
        97           Al  tau(  97) = (   0.7500000   0.0000000   0.0000000  )
        98           N   tau(  98) = (   0.7500000   0.1443376   0.1020621  )
        99           Al  tau(  99) = (   0.8750000   0.0721688   0.2041241  )
       100           N   tau( 100) = (   0.8750000   0.2165064   0.3061862  )
       101           Al  tau( 101) = (   1.0000000   0.1443376   0.4082483  )
       102           N   tau( 102) = (   1.0000000   0.2886751   0.5103104  )
       103           Ti  tau( 103) = (   1.6250000   1.0825318   0.6123724  )
       104           N   tau( 104) = (   1.1250000   0.3608439   0.7144345  )
       105           Al  tau( 105) = (   0.8750000   0.2165064   0.0000000  )
       106           N   tau( 106) = (   0.8750000   0.3608439   0.1020621  )
       107           Ti  tau( 107) = (   1.0000000   0.2886751   0.2041241  )
       108           N   tau( 108) = (   1.0000000   0.4330127   0.3061862  )
       109           Ti  tau( 109) = (   1.1250000   0.3608439   0.4082483  )
       110           N   tau( 110) = (   1.1250000   0.5051815   0.5103104  )
       111           Ti  tau( 111) = (   1.2500000   0.4330127   0.6123724  )
       112           N   tau( 112) = (   1.2500000   0.5773503   0.7144345  )
       113           Ti  tau( 113) = (   1.0000000   0.4330127   0.0000000  )
       114           N   tau( 114) = (   1.0000000   0.5773503   0.1020621  )
       115           Al  tau( 115) = (   1.1250000   0.5051815   0.2041241  )
       116           N   tau( 116) = (   1.1250000   0.6495191   0.3061862  )
       117           Al  tau( 117) = (   1.2500000   0.5773503   0.4082483  )
       118           N   tau( 118) = (   1.2500000   0.7216878   0.5103104  )
       119           Al  tau( 119) = (   1.3750000   0.6495191   0.6123724  )
       120           N   tau( 120) = (   1.3750000   0.7938566   0.7144345  )
       121           Al  tau( 121) = (   1.1250000   0.6495191   0.0000000  )
       122           N   tau( 122) = (   1.1250000   0.7938566   0.1020621  )
       123           Ti  tau( 123) = (   1.2500000   0.7216878   0.2041241  )
       124           N   tau( 124) = (   1.2500000   0.8660254   0.3061862  )
       125           Al  tau( 125) = (   1.3750000   0.7938566   0.4082483  )
       126           N   tau( 126) = (   1.3750000   0.9381942   0.5103104  )
       127           Al  tau( 127) = (   1.5000000   0.8660254   0.6123724  )
       128           N   tau( 128) = (   1.5000000   1.0103630   0.7144345  )

     number of k points=     8  Gaussian smearing, width (Ry)=  0.0050
                       cart. coord. in units 2pi/alat
        k(    1) = (   0.0000000   0.0000000   0.0000000), wk =   0.2500000
        k(    2) = (   0.0000000   0.0000000  -0.6123724), wk =   0.2500000
        k(    3) = (   0.0000000  -0.5773503   0.2041241), wk =   0.2500000
        k(    4) = (   0.0000000  -0.5773503  -0.4082483), wk =   0.2500000
        k(    5) = (   0.5000000   0.2886751   0.2041241), wk =   0.2500000
        k(    6) = (  -0.5000000   0.2886751   0.2041241), wk =   0.2500000
        k(    7) = (   0.5000000   0.2886751  -0.4082483), wk =   0.2500000
        k(    8) = (  -0.5000000   0.2886751  -0.4082483), wk =   0.2500000

     Dense  grid:  3143981 G-vectors     FFT dimensions: ( 216, 216, 216)

     Estimated max dynamical RAM per process >       2.00 GB

     Estimated total dynamical RAM >     251.06 GB

     Initial potential from superposition of free atoms

     starting charge     799.8789, renormalised to     800.0000
     Starting wfcs are  704 randomized atomic wfcs
     Checking if some PAW data can be deallocated... 

     total cpu time spent up to now is       53.3 secs

     Self-consistent Calculation

     iteration #  1     ecut=   200.00 Ry     beta= 0.20
     Davidson diagonalization with overlap
     ethr =  1.00E-02,  avg # of iterations =  2.0

     total cpu time spent up to now is      141.9 secs

     total energy              =   -8964.78299234 Ry
     estimated scf accuracy    <      36.37027352 Ry

     iteration #  2     ecut=   200.00 Ry     beta= 0.20
     Davidson diagonalization with overlap
     ethr =  4.55E-03,  avg # of iterations =  1.0

     total cpu time spent up to now is      214.2 secs

     total energy              =   -8956.29269376 Ry
     estimated scf accuracy    <      20.33634366 Ry

     iteration #  3     ecut=   200.00 Ry     beta= 0.20
     Davidson diagonalization with overlap
     ethr =  2.54E-03,  avg # of iterations =  2.9

     total cpu time spent up to now is      310.5 secs

     total energy              =   -8960.89238051 Ry
     estimated scf accuracy    <       1.05754346 Ry

     iteration #  4     ecut=   200.00 Ry     beta= 0.20
     Davidson diagonalization with overlap
     ethr =  1.32E-04,  avg # of iterations =  7.6

     total cpu time spent up to now is      419.1 secs

     total energy              =   -8961.09651044 Ry
     estimated scf accuracy    <       1.01317068 Ry

     iteration #  5     ecut=   200.00 Ry     beta= 0.20
     Davidson diagonalization with overlap
     ethr =  1.27E-04,  avg # of iterations =  1.0

     total cpu time spent up to now is      492.2 secs

     total energy              =   -8960.85695387 Ry
     estimated scf accuracy    <       0.73678373 Ry

     iteration #  6     ecut=   200.00 Ry     beta= 0.20
     Davidson diagonalization with overlap
     ethr =  9.21E-05,  avg # of iterations =  2.0

     total cpu time spent up to now is      581.3 secs

     total energy              =   -8960.94195190 Ry
     estimated scf accuracy    <       0.13477415 Ry

     iteration #  7     ecut=   200.00 Ry     beta= 0.20
     Davidson diagonalization with overlap
     ethr =  1.68E-05,  avg # of iterations =  2.0

     total cpu time spent up to now is      664.8 secs

     total energy              =   -8960.93174605 Ry
     estimated scf accuracy    <       0.05558507 Ry

     iteration #  8     ecut=   200.00 Ry     beta= 0.20
     Davidson diagonalization with overlap
     ethr =  6.95E-06,  avg # of iterations =  3.0

     total cpu time spent up to now is      779.6 secs

     total energy              =   -8960.93698145 Ry
     estimated scf accuracy    <       0.08967131 Ry

     iteration #  9     ecut=   200.00 Ry     beta= 0.20
     Davidson diagonalization with overlap
     ethr =  6.95E-06,  avg # of iterations =  2.1

     total cpu time spent up to now is      863.4 secs

     total energy              =   -8960.93814994 Ry
     estimated scf accuracy    <       0.01471748 Ry

     iteration # 10     ecut=   200.00 Ry     beta= 0.20
     Davidson diagonalization with overlap
     ethr =  1.84E-06,  avg # of iterations = 15.1

     total cpu time spent up to now is      988.3 secs

     total energy              =   -8960.94158988 Ry
     estimated scf accuracy    <       0.00316992 Ry

     iteration # 11     ecut=   200.00 Ry     beta= 0.20
     Davidson diagonalization with overlap
     ethr =  3.96E-07,  avg # of iterations =  2.0

     total cpu time spent up to now is     1074.1 secs

     total energy              =   -8960.94166232 Ry
     estimated scf accuracy    <       0.00069998 Ry

     iteration # 12     ecut=   200.00 Ry     beta= 0.20
     Davidson diagonalization with overlap
     ethr =  8.75E-08,  avg # of iterations =  5.9

     total cpu time spent up to now is     1186.5 secs

     total energy              =   -8960.94177645 Ry
     estimated scf accuracy    <       0.00047525 Ry

     iteration # 13     ecut=   200.00 Ry     beta= 0.20
     Davidson diagonalization with overlap
     ethr =  5.94E-08,  avg # of iterations =  2.0

     total cpu time spent up to now is     1265.7 secs

     total energy              =   -8960.94175547 Ry
     estimated scf accuracy    <       0.00013150 Ry

     iteration # 14     ecut=   200.00 Ry     beta= 0.20
     Davidson diagonalization with overlap
     ethr =  1.64E-08,  avg # of iterations =  5.0

     total cpu time spent up to now is     1364.3 secs

     total energy              =   -8960.94177923 Ry
     estimated scf accuracy    <       0.00003611 Ry

     iteration # 15     ecut=   200.00 Ry     beta= 0.20
     Davidson diagonalization with overlap
     ethr =  4.51E-09,  avg # of iterations =  2.0

     total cpu time spent up to now is     1444.8 secs

     total energy              =   -8960.94177718 Ry
     estimated scf accuracy    <       0.00001538 Ry

     iteration # 16     ecut=   200.00 Ry     beta= 0.20
     Davidson diagonalization with overlap
     ethr =  1.92E-09,  avg # of iterations =  4.4

     total cpu time spent up to now is     1537.4 secs

     total energy              =   -8960.94177829 Ry
     estimated scf accuracy    <       0.00000529 Ry

     iteration # 17     ecut=   200.00 Ry     beta= 0.20
     Davidson diagonalization with overlap
     ethr =  6.61E-10,  avg # of iterations =  6.5

     total cpu time spent up to now is     1627.6 secs

     total energy              =   -8960.94177734 Ry
     estimated scf accuracy    <       0.00000302 Ry

     iteration # 18     ecut=   200.00 Ry     beta= 0.20
     Davidson diagonalization with overlap
     ethr =  3.78E-10,  avg # of iterations =  4.8

     total cpu time spent up to now is     1731.4 secs

     End of self-consistent calculation

          k = 0.0000 0.0000 0.0000 (392549 PWs)   bands (ev):

   -43.6950 -43.5728 -43.5380 -43.5356 -43.5122 -43.5004 -43.4801 -43.4610
   -43.4574 -43.4478 -43.4417 -43.4375 -43.4343 -43.4244 -43.4216 -43.4082
   -43.4036 -43.3976 -43.3919 -43.3916 -43.3764 -43.3697 -43.3646 -43.3600
   -43.3560 -43.3493 -43.3382 -43.3229 -43.3185 -43.3013 -43.2876 -43.2563
   -20.1247 -20.0187 -20.0115 -20.0069 -20.0040 -19.9980 -19.9915 -19.9803
   -19.9718 -19.9568 -19.9486 -19.9403 -19.9363 -19.9343 -19.9289 -19.9214
   -19.9150 -19.9120 -19.9026 -19.8971 -19.8960 -19.8891 -19.8841 -19.8768
   -19.8672 -19.8658 -19.8614 -19.8601 -19.8479 -19.8408 -19.8356 -19.8343
   -19.8307 -19.8266 -19.8221 -19.8115 -19.8088 -19.8038 -19.7940 -19.7877
   -19.7825 -19.7746 -19.7675 -19.7632 -19.7611 -19.7550 -19.7545 -19.7450
   -19.7378 -19.7280 -19.7247 -19.7243 -19.7171 -19.7146 -19.7077 -19.7033
   -19.6963 -19.6908 -19.6882 -19.6845 -19.6788 -19.6771 -19.6729 -19.6693
   -19.6648 -19.6530 -19.6520 -19.6431 -19.6376 -19.6304 -19.6285 -19.6221
   -19.6188 -19.6094 -19.6080 -19.6024 -19.5978 -19.5929 -19.5864 -19.5810
   -19.5756 -19.5726 -19.5648 -19.5614 -19.5582 -19.5548 -19.5482 -19.5467
   -19.5411 -19.5295 -19.5260 -19.5186 -19.5039 -19.4989 -19.4776 -19.4612
    -3.6447  -2.7723  -2.7232  -2.6778  -2.6348  -2.5952  -2.5288  -2.4726
    -2.3829  -2.3681  -2.2598  -2.2085  -2.1488  -2.0835  -1.9755  -1.5055
    -1.4924  -1.4698  -1.4384  -1.4208  -1.3961  -1.3763  -1.3497  -1.3141
    -1.2795  -1.2592  -1.2380  -1.2177  -1.1954  -1.1817  -1.1572  -1.1492
    -1.1254  -1.1155  -1.1000  -1.0834  -1.0740  -1.0454  -1.0327  -1.0129
    -1.0015  -0.9870  -0.9674  -0.9532  -0.9304  -0.9129  -0.9036  -0.8751
    -0.8686  -0.8608  -0.8439  -0.8150  -0.8028  -0.7715  -0.7415  -0.7280
    -0.7020  -0.6957  -0.6377  -0.6360  -0.6212  -0.6003  -0.5696  -0.5591
     4.8082   4.9452   5.2518   5.3661   5.9020   5.9542   5.9655   6.0249
     6.0772   6.0821   6.1171   6.1895   6.2031   6.2472   6.3385   6.3800
     6.4175   6.4691   6.4863   6.5508   6.5563   6.5987   6.6337   6.6770
     6.7080   6.7878   6.8281   6.8972   6.9647   6.9863   7.0200   7.0812
     7.1413   7.1693   7.2145   7.2870   7.3283   7.3688   7.4113   7.4418
     7.5021   7.5654   7.6326   7.6475   7.6843   7.7257   7.7418   7.7814
     7.8541   7.8980   7.9338   7.9692   7.9920   8.0361   8.0748   8.0777
     8.1012   8.1270   8.1828   8.2230   8.2842   8.3335   8.3462   8.3632
     8.3824   8.3980   8.4259   8.4565   8.4745   8.5328   8.5379   8.5524
     8.5670   8.5867   8.6288   8.6675   8.6846   8.6999   8.7080   8.7359
     8.7728   8.8023   8.8248   8.8689   8.8709   8.9221   8.9412   8.9578
     8.9775   9.0038   9.0141   9.0414   9.0529   9.0713   9.0839   9.1110
     9.1445   9.1633   9.1732   9.2000   9.2199   9.2331   9.2637   9.2948
     9.3187   9.3356   9.3577   9.3695   9.4165   9.4211   9.4447   9.4597
     9.4786   9.5023   9.5461   9.5666   9.5765   9.6683   9.7010   9.7248
     9.7513   9.7589   9.8068   9.8219   9.8664   9.8845   9.9183   9.9696
    10.0050  10.0416  10.0692  10.0744  10.0890  10.1116  10.1441  10.1753
    10.2304  10.2339  10.2486  10.2557  10.3076  10.3423  10.3637  10.3749
    10.4010  10.4229  10.4465  10.4731  10.4888  10.5304  10.5383  10.5697
    10.6044  10.6301  10.6490  10.6539  10.6844  10.7021  10.7289  10.7644
    10.8013  10.8403  10.8575  10.8982  10.9109  10.9300  10.9373  10.9850
    10.9950  11.0036  11.0193  11.0400  11.0605  11.0802  11.0974  11.1114
    11.1229  11.1434  11.1669  11.1808  11.2124  11.2392  11.2481  11.2536
    11.3046  11.3122  11.3348  11.3595  11.3679  12.2590  12.2605  12.2762
    12.6401  12.6876  12.7178  13.3866  13.4263  13.5553  13.5759  13.5964
    13.8663  14.1909  14.3323  14.3507  14.3763  14.4206  14.4579  14.4866
    14.5418  14.5645  14.5913  14.6317  14.6571  14.7189  14.7260  14.7685
    14.8030  14.8297  14.8364  14.8711  14.9007  14.9110  14.9534  15.0161
    15.0252  15.0523  15.0850  15.1267  15.1868  15.2365  15.2994  15.3302
    15.3502  15.3571  15.4003  15.4085  15.4310  15.4457  15.4742  15.5124
    15.5257  15.5508  15.5915  15.6280  15.6705  15.6722  15.7083  15.7185
    15.7650  15.7834  15.7848  15.8437  15.8870  15.8942  15.9187  15.9482
    15.9664  15.9913  16.0358  16.0486  16.0624  16.0787  16.1021  16.1214
    16.1441  16.1512  16.1646  16.1929  16.2074  16.2335  16.2413  16.2455
    16.2630  16.2780  16.2796  16.2958  16.3122  16.3133  16.3240  16.3456
    16.3643  16.3804  16.3929  16.4061  16.4350  16.4629  16.4809  16.5097

          k = 0.0000 0.0000-0.6124 (392988 PWs)   bands (ev):

   -43.6950 -43.5728 -43.5380 -43.5356 -43.5122 -43.5004 -43.4801 -43.4615
   -43.4574 -43.4461 -43.4428 -43.4373 -43.4347 -43.4241 -43.4218 -43.4087
   -43.4036 -43.3988 -43.3917 -43.3895 -43.3771 -43.3692 -43.3647 -43.3606
   -43.3559 -43.3493 -43.3381 -43.3238 -43.3173 -43.3018 -43.2874 -43.2563
   -20.1245 -20.0170 -20.0071 -20.0032 -19.9979 -19.9935 -19.9894 -19.9768
   -19.9703 -19.9591 -19.9531 -19.9426 -19.9363 -19.9321 -19.9249 -19.9189
   -19.9159 -19.9101 -19.9045 -19.8976 -19.8947 -19.8944 -19.8909 -19.8862
   -19.8773 -19.8673 -19.8651 -19.8597 -19.8565 -19.8513 -19.8372 -19.8336
   -19.8288 -19.8248 -19.8185 -19.8179 -19.8152 -19.8027 -19.7998 -19.7907
   -19.7873 -19.7760 -19.7738 -19.7641 -19.7611 -19.7494 -19.7422 -19.7420
   -19.7363 -19.7355 -19.7294 -19.7207 -19.7153 -19.7105 -19.7020 -19.6982
   -19.6967 -19.6885 -19.6840 -19.6816 -19.6756 -19.6708 -19.6675 -19.6626
   -19.6578 -19.6556 -19.6468 -19.6437 -19.6314 -19.6286 -19.6255 -19.6187
   -19.6106 -19.6082 -19.6020 -19.5998 -19.5982 -19.5921 -19.5889 -19.5820
   -19.5810 -19.5762 -19.5735 -19.5647 -19.5618 -19.5602 -19.5527 -19.5471
   -19.5394 -19.5304 -19.5284 -19.5184 -19.5076 -19.5019 -19.4781 -19.4614
    -3.4215  -3.3185  -2.8278  -2.7682  -2.6707  -2.5969  -2.5095  -2.4145
    -2.1637  -2.0960  -2.0525  -2.0326  -1.9684  -1.9374  -1.7620  -1.7199
    -1.6607  -1.6320  -1.6187  -1.5379  -1.4603  -1.4300  -1.4223  -1.3841
    -1.3332  -1.3073  -1.2820  -1.2505  -1.2344  -1.2169  -1.1872  -1.1690
    -1.1339  -1.1295  -1.1037  -1.0886  -1.0494  -1.0469  -1.0133  -1.0027
    -0.9844  -0.9799  -0.9444  -0.9270  -0.9208  -0.8985  -0.8747  -0.8617
    -0.8410  -0.8288  -0.7919  -0.7864  -0.7629  -0.7601  -0.7324  -0.7041
    -0.6965  -0.6596  -0.6533  -0.6481  -0.6099  -0.6032  -0.5633  -0.5165
     5.0332   5.2926   5.3573   5.5019   5.5584   5.6994   5.8891   5.9292
     5.9608   6.0178   6.0784   6.1335   6.2451   6.2904   6.3774   6.3950
     6.4331   6.5278   6.5689   6.5755   6.6051   6.6630   6.7293   6.7446
     6.7478   6.8117   6.8576   6.8749   6.9140   6.9384   6.9848   7.0187
     7.0536   7.0837   7.1402   7.2051   7.2435   7.2708   7.2898   7.3321
     7.3910   7.4206   7.4802   7.5301   7.5796   7.6396   7.6747   7.7164
     7.7314   7.7808   7.7877   7.8590   7.8626   7.9844   8.0185   8.0403
     8.0897   8.0949   8.1268   8.2208   8.2279   8.2496   8.2539   8.3050
     8.3642   8.3856   8.4498   8.4692   8.4747   8.5160   8.5408   8.5584
     8.5966   8.6470   8.7071   8.7304   8.7839   8.8334   8.8695   8.9014
     8.9284   8.9340   8.9562   8.9945   9.0152   9.0269   9.0892   9.1026
     9.1396   9.1582   9.1941   9.2003   9.2084   9.2254   9.2657   9.2859
     9.3092   9.3231   9.3361   9.3473   9.3893   9.4054   9.4399   9.4417
     9.4675   9.4815   9.4930   9.5271   9.5406   9.5736   9.5761   9.5998
     9.6225   9.6655   9.6788   9.7098   9.7284   9.7376   9.7552   9.7695
     9.7722   9.8125   9.8251   9.8559   9.8622   9.9117   9.9254   9.9353
     9.9648   9.9819   9.9853   9.9968  10.0366  10.0745  10.0994  10.1035
    10.1485  10.1677  10.1776  10.1918  10.2321  10.2445  10.2607  10.2711
    10.3144  10.3409  10.3659  10.3957  10.4242  10.4333  10.4633  10.4924
    10.5056  10.5248  10.5477  10.5637  10.5771  10.5941  10.6040  10.6329
    10.6573  10.6769  10.6998  10.7141  10.7381  10.7825  10.7936  10.8170
    10.8739  10.8866  10.9181  10.9362  10.9470  10.9685  10.9912  10.9964
    11.0338  11.0549  11.0806  11.1303  11.1541  11.1891  11.2076  11.2272
    11.2542  11.2839  11.3452  11.4096  11.8008  11.8191  11.8701  11.8776
    13.1994  13.2642  13.2826  13.4801  13.5012  13.5744  13.5998  13.7738
    13.9044  13.9232  14.0646  14.0746  14.1929  14.3269  14.3953  14.4656
    14.5390  14.5962  14.6769  14.7127  14.7618  14.7654  14.8285  14.8740
    14.9155  14.9410  14.9620  14.9870  15.0003  15.0078  15.0497  15.0653
    15.0816  15.1292  15.1451  15.1969  15.2165  15.2241  15.2574  15.3195
    15.3407  15.3633  15.4258  15.4489  15.4610  15.4925  15.5531  15.5757
    15.6062  15.6257  15.6334  15.6560  15.6723  15.6802  15.6945  15.7250
    15.7437  15.7651  15.7842  15.8305  15.8403  15.8743  15.8826  15.8908
    15.9004  15.9310  15.9421  15.9637  15.9749  15.9963  16.0077  16.0249
    16.0564  16.0827  16.0959  16.1340  16.1433  16.1621  16.2140  16.2195
    16.2328  16.2539  16.2631  16.2759  16.2903  16.3298  16.3596  16.3903
    16.3997  16.4450  16.4584  16.4694  16.4914  16.4992  16.5124  16.5300

          k = 0.0000-0.5774 0.2041 (392988 PWs)   bands (ev):

   -43.6950 -43.5728 -43.5380 -43.5356 -43.5122 -43.5004 -43.4801 -43.4615
   -43.4574 -43.4461 -43.4426 -43.4373 -43.4350 -43.4241 -43.4217 -43.4086
   -43.4038 -43.3990 -43.3923 -43.3884 -43.3772 -43.3697 -43.3644 -43.3604
   -43.3561 -43.3492 -43.3382 -43.3229 -43.3185 -43.3013 -43.2876 -43.2563
   -20.1247 -20.0156 -20.0082 -20.0061 -19.9974 -19.9933 -19.9826 -19.9738
   -19.9699 -19.9605 -19.9506 -19.9453 -19.9347 -19.9325 -19.9288 -19.9226
   -19.9137 -19.9084 -19.9014 -19.8971 -19.8951 -19.8941 -19.8906 -19.8876
   -19.8753 -19.8688 -19.8624 -19.8618 -19.8543 -19.8473 -19.8438 -19.8396
   -19.8318 -19.8301 -19.8265 -19.8229 -19.8090 -19.8052 -19.8001 -19.7863
   -19.7823 -19.7712 -19.7701 -19.7663 -19.7634 -19.7621 -19.7472 -19.7431
   -19.7343 -19.7289 -19.7261 -19.7207 -19.7160 -19.7099 -19.7065 -19.6985
   -19.6910 -19.6848 -19.6833 -19.6807 -19.6767 -19.6696 -19.6673 -19.6651
   -19.6547 -19.6536 -19.6449 -19.6422 -19.6339 -19.6262 -19.6224 -19.6193
   -19.6154 -19.6063 -19.6043 -19.6017 -19.5973 -19.5915 -19.5904 -19.5820
   -19.5812 -19.5728 -19.5723 -19.5709 -19.5583 -19.5569 -19.5508 -19.5437
   -19.5380 -19.5336 -19.5260 -19.5188 -19.5056 -19.5026 -19.4785 -19.4706
    -3.4714  -3.2192  -2.8447  -2.7550  -2.7098  -2.6620  -2.5509  -2.4074
    -2.1546  -2.0767  -2.0238  -1.9765  -1.9235  -1.8899  -1.7522  -1.7114
    -1.6562  -1.6410  -1.6211  -1.5899  -1.4818  -1.4721  -1.4354  -1.3755
    -1.3412  -1.3161  -1.2848  -1.2773  -1.2496  -1.2278  -1.1970  -1.1630
    -1.1362  -1.1217  -1.0872  -1.0687  -1.0393  -1.0325  -1.0265  -1.0180
    -1.0006  -0.9826  -0.9729  -0.9265  -0.9047  -0.8885  -0.8646  -0.8451
    -0.8351  -0.8066  -0.7810  -0.7733  -0.7615  -0.7571  -0.7295  -0.7183
    -0.6849  -0.6754  -0.6536  -0.6470  -0.6156  -0.5984  -0.5655  -0.5272
     5.1313   5.2693   5.3373   5.3974   5.5238   5.7060   5.9045   5.9527
     6.0135   6.0350   6.0912   6.1478   6.2373   6.2799   6.3173   6.3456
     6.3990   6.4192   6.5281   6.5883   6.6378   6.6829   6.7253   6.7715
     6.8156   6.8500   6.8728   6.8903   6.9367   6.9671   6.9833   7.0282
     7.0810   7.1547   7.1744   7.2159   7.2233   7.2932   7.3564   7.3832
     7.4073   7.4898   7.5059   7.5116   7.5355   7.5557   7.5881   7.6769
     7.7025   7.7430   7.7630   7.8283   7.8787   7.9206   7.9879   8.0366
     8.0935   8.1153   8.1498   8.1669   8.1774   8.2350   8.2556   8.2748
     8.3023   8.4027   8.4562   8.4772   8.4981   8.5333   8.5785   8.6087
     8.6461   8.7032   8.7102   8.7617   8.8211   8.8335   8.8724   8.8800
     8.8889   8.9067   8.9350   9.0147   9.0361   9.0506   9.0676   9.0988
     9.1056   9.1270   9.1750   9.1788   9.2018   9.2302   9.2541   9.2706
     9.2950   9.3092   9.3416   9.3593   9.3753   9.4052   9.4164   9.4555
     9.4629   9.4824   9.5035   9.5237   9.5291   9.5687   9.6013   9.6199
     9.6490   9.6607   9.6694   9.6937   9.7269   9.7414   9.7597   9.7959
     9.8127   9.8320   9.8500   9.8787   9.8966   9.9029   9.9275   9.9338
     9.9404   9.9877  10.0122  10.0447  10.0526  10.0682  10.0783  10.0919
    10.1451  10.1821  10.2008  10.2018  10.2180  10.2358  10.2559  10.2813
    10.3261  10.3521  10.3661  10.3801  10.4099  10.4288  10.4548  10.4657
    10.4761  10.5017  10.5441  10.5571  10.5701  10.5815  10.6070  10.6149
    10.6494  10.6680  10.6868  10.7327  10.7650  10.7693  10.8159  10.8207
    10.8305  10.8666  10.8923  10.9363  10.9586  10.9678  10.9826  11.0107
    11.0264  11.0898  11.1064  11.1143  11.1564  11.1859  11.2187  11.2421
    11.2531  11.3208  11.3402  11.3625  11.7562  11.7819  11.9050  11.9288
    13.1875  13.2203  13.2561  13.4821  13.5209  13.6361  13.7134  13.7696
    13.8660  13.8911  13.9597  14.1960  14.2426  14.3078  14.4027  14.4717
    14.5295  14.6231  14.6979  14.7296  14.7632  14.7820  14.8104  14.8664
    14.8896  14.9458  14.9699  14.9716  15.0027  15.0229  15.0388  15.0659
    15.0808  15.1319  15.1781  15.1849  15.2144  15.2360  15.2401  15.2636
    15.3140  15.3236  15.3713  15.4176  15.4472  15.4943  15.5307  15.5574
    15.5810  15.5831  15.6109  15.6274  15.6619  15.6782  15.7066  15.7247
    15.7528  15.7891  15.7987  15.8120  15.8248  15.8302  15.8911  15.9122
    15.9418  15.9537  15.9737  15.9803  16.0051  16.0243  16.0506  16.0660
    16.0944  16.1226  16.1456  16.1534  16.1602  16.2007  16.2113  16.2287
    16.2435  16.2546  16.2640  16.2969  16.3175  16.3312  16.3643  16.3749
    16.3827  16.4188  16.4286  16.4580  16.4616  16.4818  16.4883  16.5274

          k = 0.0000-0.5774-0.4082 (393160 PWs)   bands (ev):

   -43.6950 -43.5728 -43.5380 -43.5357 -43.5122 -43.5004 -43.4801 -43.4610
   -43.4574 -43.4478 -43.4417 -43.4374 -43.4344 -43.4244 -43.4217 -43.4086
   -43.4036 -43.3979 -43.3930 -43.3897 -43.3764 -43.3691 -43.3643 -43.3613
   -43.3559 -43.3492 -43.3381 -43.3238 -43.3173 -43.3018 -43.2874 -43.2563
   -20.1246 -20.0148 -20.0095 -20.0031 -20.0011 -19.9967 -19.9856 -19.9806
   -19.9718 -19.9569 -19.9459 -19.9432 -19.9395 -19.9319 -19.9258 -19.9228
   -19.9131 -19.9065 -19.9039 -19.9018 -19.8981 -19.8916 -19.8871 -19.8812
   -19.8737 -19.8699 -19.8635 -19.8597 -19.8557 -19.8480 -19.8430 -19.8380
   -19.8289 -19.8255 -19.8210 -19.8131 -19.8089 -19.8041 -19.7995 -19.7886
   -19.7822 -19.7784 -19.7721 -19.7683 -19.7598 -19.7566 -19.7483 -19.7402
   -19.7342 -19.7333 -19.7280 -19.7202 -19.7149 -19.7068 -19.7052 -19.7011
   -19.6978 -19.6909 -19.6866 -19.6789 -19.6773 -19.6732 -19.6698 -19.6674
   -19.6568 -19.6492 -19.6459 -19.6388 -19.6369 -19.6302 -19.6281 -19.6253
   -19.6160 -19.6136 -19.6067 -19.5986 -19.5969 -19.5917 -19.5865 -19.5832
   -19.5783 -19.5707 -19.5697 -19.5680 -19.5569 -19.5504 -19.5488 -19.5385
   -19.5350 -19.5329 -19.5275 -19.5206 -19.5068 -19.5027 -19.4792 -19.4714
    -3.3777  -3.2377  -2.9356  -2.9089  -2.8329  -2.7522  -2.1876  -2.1384
    -2.1241  -2.0827  -2.0256  -1.9869  -1.9530  -1.8340  -1.7768  -1.7103
    -1.7044  -1.6958  -1.6097  -1.5891  -1.5683  -1.5350  -1.4051  -1.3934
    -1.3743  -1.3404  -1.3152  -1.2922  -1.2433  -1.2176  -1.1944  -1.1756
    -1.1644  -1.1504  -1.1300  -1.0813  -1.0709  -1.0344  -1.0196  -1.0062
    -0.9952  -0.9626  -0.9520  -0.9289  -0.8927  -0.8895  -0.8764  -0.8467
    -0.8206  -0.7949  -0.7857  -0.7728  -0.7401  -0.7307  -0.7237  -0.7076
    -0.6875  -0.6588  -0.6380  -0.6271  -0.6166  -0.5940  -0.5474  -0.5427
     5.2310   5.3623   5.4071   5.5663   5.6353   5.6823   5.7042   5.7828
     5.9378   5.9593   5.9792   6.0862   6.2132   6.2688   6.3277   6.4168
     6.4679   6.4955   6.5205   6.6164   6.6302   6.6726   6.7180   6.7652
     6.7903   6.8140   6.8593   6.8843   6.8943   6.9882   7.0139   7.0345
     7.0690   7.0843   7.1228   7.1743   7.1953   7.2965   7.3390   7.3726
     7.3973   7.4489   7.4866   7.5444   7.5715   7.6166   7.6632   7.6978
     7.7071   7.7731   7.7881   7.8192   7.8722   7.8997   7.9449   7.9822
     8.0079   8.0213   8.0728   8.0927   8.1392   8.1578   8.1953   8.2122
     8.2670   8.3380   8.3502   8.3979   8.4280   8.5229   8.5445   8.6091
     8.7273   8.7800   8.7938   8.8343   8.8522   8.8881   8.8990   8.9489
     8.9869   9.0368   9.0760   9.0762   9.1191   9.1281   9.1586   9.2060
     9.2185   9.2352   9.2421   9.2468   9.2813   9.3042   9.3217   9.3449
     9.3580   9.3675   9.3912   9.4001   9.4134   9.4264   9.4504   9.4657
     9.4824   9.5076   9.5270   9.5457   9.5659   9.5847   9.5941   9.6311
     9.6370   9.6612   9.6834   9.7097   9.7519   9.7623   9.7686   9.7951
     9.7974   9.8244   9.8572   9.8626   9.8909   9.9176   9.9408   9.9493
     9.9592   9.9839  10.0044  10.0215  10.0483  10.0551  10.0870  10.0926
    10.1127  10.1485  10.1546  10.1765  10.1861  10.2393  10.2609  10.3152
    10.3307  10.3408  10.3562  10.3686  10.4035  10.4187  10.4258  10.4419
    10.4590  10.4709  10.4949  10.5152  10.5233  10.5480  10.5716  10.5953
    10.6290  10.6490  10.6732  10.6987  10.7141  10.7436  10.7510  10.7687
    10.7869  10.8258  10.8410  10.8578  10.8868  10.9045  10.9324  10.9438
    10.9610  10.9711  10.9919  11.0396  11.0569  11.1013  11.2098  11.2592
    11.2988  11.3529  11.4607  11.5482  11.6784  11.6994  11.7942  11.8015
    12.7085  13.1132  13.5888  13.6075  13.8408  13.8568  13.9304  14.0203
    14.0772  14.1561  14.1700  14.2385  14.2780  14.2884  14.3897  14.4289
    14.4624  14.4901  14.5012  14.5691  14.6316  14.6859  14.7323  14.7592
    14.8048  14.8338  14.8616  14.9167  14.9310  15.0014  15.0280  15.0610
    15.1124  15.1453  15.1704  15.2197  15.2716  15.3026  15.3220  15.3365
    15.3740  15.3896  15.4017  15.4430  15.4539  15.5253  15.5368  15.5553
    15.5929  15.6172  15.6596  15.6720  15.6962  15.7174  15.7252  15.7458
    15.7679  15.7927  15.7951  15.8195  15.8488  15.8500  15.8862  15.8896
    15.9145  15.9318  15.9375  15.9585  15.9710  15.9928  16.0170  16.0315
    16.0465  16.0942  16.1027  16.1228  16.1566  16.1781  16.1885  16.2014
    16.2166  16.2309  16.2419  16.2625  16.2786  16.3043  16.3140  16.3321
    16.3432  16.3664  16.3863  16.3993  16.4092  16.4375  16.4500  16.4816

          k = 0.5000 0.2887 0.2041 (392988 PWs)   bands (ev):

   -43.6950 -43.5728 -43.5380 -43.5357 -43.5122 -43.5004 -43.4801 -43.4611
   -43.4574 -43.4478 -43.4417 -43.4373 -43.4344 -43.4243 -43.4217 -43.4095
   -43.4025 -43.3976 -43.3933 -43.3897 -43.3764 -43.3698 -43.3643 -43.3608
   -43.3558 -43.3493 -43.3381 -43.3230 -43.3184 -43.3014 -43.2876 -43.2563
   -20.1247 -20.0118 -20.0103 -20.0070 -20.0012 -20.0001 -19.9869 -19.9774
   -19.9575 -19.9526 -19.9504 -19.9430 -19.9391 -19.9356 -19.9303 -19.9236
   -19.9158 -19.9075 -19.9064 -19.9010 -19.8967 -19.8927 -19.8898 -19.8799
   -19.8774 -19.8656 -19.8627 -19.8620 -19.8522 -19.8500 -19.8454 -19.8372
   -19.8286 -19.8242 -19.8190 -19.8159 -19.8080 -19.8041 -19.7957 -19.7932
   -19.7783 -19.7725 -19.7706 -19.7680 -19.7652 -19.7552 -19.7421 -19.7411
   -19.7362 -19.7329 -19.7286 -19.7265 -19.7166 -19.7075 -19.7020 -19.6962
   -19.6942 -19.6903 -19.6867 -19.6835 -19.6811 -19.6754 -19.6672 -19.6642
   -19.6638 -19.6537 -19.6479 -19.6404 -19.6371 -19.6276 -19.6258 -19.6192
   -19.6169 -19.6083 -19.6078 -19.6014 -19.5974 -19.5914 -19.5870 -19.5838
   -19.5789 -19.5742 -19.5678 -19.5635 -19.5585 -19.5498 -19.5481 -19.5400
   -19.5372 -19.5323 -19.5285 -19.5203 -19.5039 -19.5025 -19.4795 -19.4722
    -3.3951  -3.3518  -2.8291  -2.7794  -2.6798  -2.5788  -2.5108  -2.3248
    -2.1643  -2.1355  -2.0784  -2.0056  -1.9999  -1.9391  -1.7721  -1.7603
    -1.6750  -1.6612  -1.6087  -1.5735  -1.4397  -1.4109  -1.3714  -1.3457
    -1.3372  -1.3160  -1.2998  -1.2578  -1.2307  -1.2119  -1.1633  -1.1484
    -1.1359  -1.1232  -1.0964  -1.0725  -1.0544  -1.0417  -1.0372  -1.0017
    -0.9765  -0.9695  -0.9561  -0.9308  -0.9169  -0.9053  -0.8876  -0.8455
    -0.8344  -0.8294  -0.7976  -0.7949  -0.7798  -0.7697  -0.7381  -0.7048
    -0.6836  -0.6750  -0.6510  -0.6425  -0.6261  -0.5918  -0.5439  -0.5348
     5.0508   5.1520   5.5078   5.5623   5.6439   5.7349   5.8310   5.9329
     5.9406   5.9760   6.0763   6.1276   6.2193   6.3078   6.3260   6.3623
     6.4380   6.4581   6.5298   6.5979   6.6015   6.6511   6.6871   6.7439
     6.7844   6.8266   6.8444   6.8830   6.9090   6.9726   6.9893   7.0227
     7.0263   7.0667   7.1120   7.1816   7.2757   7.2920   7.3086   7.3569
     7.3620   7.4454   7.4802   7.5099   7.6048   7.6277   7.6336   7.6767
     7.7525   7.7695   7.8310   7.8625   7.9312   7.9465   7.9667   7.9985
     8.0918   8.1002   8.1548   8.1849   8.1986   8.2121   8.2748   8.3310
     8.3783   8.4134   8.4338   8.4647   8.5137   8.5723   8.5988   8.6510
     8.6838   8.6955   8.7516   8.7751   8.8202   8.8220   8.8623   8.8826
     8.8879   8.9350   8.9685   9.0009   9.0122   9.0396   9.0511   9.1024
     9.1299   9.1635   9.2004   9.2158   9.2345   9.2502   9.2603   9.2946
     9.3033   9.3178   9.3359   9.3484   9.3552   9.3691   9.4155   9.4425
     9.4449   9.4632   9.4804   9.4899   9.5164   9.5413   9.5826   9.5922
     9.6123   9.6183   9.6502   9.6767   9.6951   9.7035   9.7343   9.7525
     9.7943   9.8009   9.8135   9.8362   9.8556   9.8725   9.9064   9.9163
     9.9446   9.9831   9.9976  10.0425  10.0515  10.0892  10.0960  10.1156
    10.1379  10.1725  10.2032  10.2191  10.2380  10.2526  10.2675  10.3126
    10.3384  10.3525  10.3631  10.3961  10.4132  10.4348  10.4651  10.4715
    10.5063  10.5349  10.5614  10.5933  10.6093  10.6160  10.6412  10.6507
    10.6865  10.6973  10.6983  10.7100  10.7421  10.7787  10.7991  10.8244
    10.8306  10.8737  10.9261  10.9303  10.9444  10.9527  10.9690  11.0035
    11.0248  11.0300  11.0482  11.0827  11.1337  11.1661  11.1975  11.2629
    11.2740  11.2848  11.3752  11.4356  11.8092  11.8259  11.8523  11.8847
    13.1174  13.2482  13.3047  13.3956  13.5055  13.5574  13.6705  13.8040
    13.8407  14.0276  14.1700  14.2090  14.2512  14.3061  14.3892  14.4841
    14.5161  14.5847  14.6572  14.6816  14.7435  14.7801  14.7956  14.8544
    14.8699  14.8988  14.9236  14.9504  14.9610  15.0061  15.0107  15.0572
    15.0861  15.1050  15.1113  15.1781  15.2204  15.2478  15.2779  15.3387
    15.3876  15.4092  15.4152  15.4328  15.4733  15.4995  15.5139  15.5251
    15.5675  15.5853  15.6095  15.6260  15.6434  15.6489  15.6887  15.7042
    15.7302  15.7467  15.7855  15.8023  15.8321  15.8548  15.8638  15.8942
    15.9128  15.9419  15.9567  15.9645  15.9845  16.0046  16.0608  16.0912
    16.1048  16.1205  16.1331  16.1541  16.1673  16.1888  16.1975  16.2046
    16.2298  16.2595  16.2875  16.2994  16.3208  16.3267  16.3584  16.3756
    16.3807  16.3994  16.4147  16.4441  16.4781  16.4942  16.5026  16.5311

          k =-0.5000 0.2887 0.2041 (392988 PWs)   bands (ev):

   -43.6950 -43.5728 -43.5380 -43.5357 -43.5122 -43.5004 -43.4801 -43.4610
   -43.4574 -43.4478 -43.4417 -43.4375 -43.4343 -43.4244 -43.4216 -43.4092
   -43.4022 -43.3978 -43.3920 -43.3917 -43.3764 -43.3691 -43.3646 -43.3605
   -43.3560 -43.3493 -43.3381 -43.3240 -43.3172 -43.3017 -43.2875 -43.2563
   -20.1246 -20.0142 -20.0094 -20.0051 -20.0024 -19.9996 -19.9901 -19.9759
   -19.9652 -19.9584 -19.9460 -19.9411 -19.9349 -19.9322 -19.9282 -19.9274
   -19.9128 -19.9101 -19.9080 -19.9056 -19.8964 -19.8941 -19.8868 -19.8807
   -19.8702 -19.8651 -19.8625 -19.8596 -19.8545 -19.8470 -19.8420 -19.8398
   -19.8339 -19.8262 -19.8195 -19.8123 -19.8060 -19.8003 -19.7951 -19.7928
   -19.7825 -19.7774 -19.7739 -19.7619 -19.7581 -19.7541 -19.7482 -19.7423
   -19.7320 -19.7276 -19.7222 -19.7188 -19.7130 -19.7105 -19.7074 -19.7047
   -19.6978 -19.6900 -19.6869 -19.6821 -19.6817 -19.6765 -19.6701 -19.6676
   -19.6583 -19.6556 -19.6513 -19.6382 -19.6331 -19.6277 -19.6252 -19.6218
   -19.6161 -19.6107 -19.6069 -19.6021 -19.5981 -19.5933 -19.5883 -19.5847
   -19.5814 -19.5729 -19.5685 -19.5633 -19.5592 -19.5524 -19.5490 -19.5433
   -19.5391 -19.5307 -19.5291 -19.5181 -19.5079 -19.5024 -19.4775 -19.4619
    -3.4706  -3.2256  -2.8544  -2.7516  -2.6969  -2.5906  -2.5474  -2.4846
    -2.1429  -2.0899  -2.0705  -1.9991  -1.9459  -1.8266  -1.7613  -1.7273
    -1.6490  -1.6262  -1.6254  -1.5612  -1.4674  -1.4227  -1.3963  -1.3750
    -1.3663  -1.3288  -1.2999  -1.2877  -1.2369  -1.2009  -1.1991  -1.1633
    -1.1553  -1.1419  -1.1155  -1.0941  -1.0585  -1.0299  -1.0207  -1.0005
    -0.9830  -0.9655  -0.9525  -0.9272  -0.9144  -0.8930  -0.8697  -0.8607
    -0.8313  -0.8190  -0.8075  -0.7828  -0.7798  -0.7414  -0.7238  -0.7000
    -0.6754  -0.6731  -0.6385  -0.6249  -0.6213  -0.5988  -0.5740  -0.5396
     5.0821   5.2751   5.3199   5.4722   5.6104   5.6430   5.8234   5.9389
     6.0176   6.0729   6.1099   6.1587   6.2303   6.2930   6.3049   6.3816
     6.4677   6.5046   6.5677   6.5862   6.6308   6.6568   6.6884   6.7062
     6.7613   6.7780   6.8279   6.8742   6.9394   6.9548   6.9989   7.0394
     7.0701   7.1443   7.1756   7.2124   7.2453   7.2812   7.2882   7.3071
     7.4100   7.4282   7.4815   7.5124   7.5689   7.6250   7.6646   7.7080
     7.7532   7.7871   7.8005   7.8592   7.9003   7.9159   7.9952   8.0095
     8.0646   8.0921   8.1224   8.1653   8.1968   8.2232   8.2786   8.3044
     8.3233   8.3821   8.4276   8.4612   8.5047   8.5217   8.5956   8.6463
     8.6592   8.6937   8.7352   8.7708   8.8215   8.8237   8.8438   8.8905
     8.8976   8.9597   8.9806   9.0072   9.0079   9.0225   9.0414   9.0982
     9.1114   9.1331   9.1693   9.1943   9.2130   9.2347   9.2742   9.2904
     9.3002   9.3241   9.3509   9.3555   9.3668   9.4034   9.4124   9.4355
     9.4709   9.4780   9.4998   9.5207   9.5380   9.5657   9.5875   9.5968
     9.6452   9.6612   9.6799   9.6926   9.7038   9.7257   9.7426   9.7538
     9.7920   9.7998   9.8150   9.8331   9.8856   9.8961   9.9116   9.9287
     9.9545   9.9788   9.9938  10.0123  10.0448  10.0779  10.1026  10.1039
    10.1378  10.1538  10.1683  10.2070  10.2320  10.2451  10.2696  10.2906
    10.3051  10.3326  10.3734  10.3953  10.4203  10.4329  10.4635  10.4866
    10.4961  10.5269  10.5551  10.5644  10.5793  10.5842  10.6257  10.6619
    10.6662  10.7011  10.7039  10.7377  10.7604  10.7990  10.8150  10.8220
    10.8388  10.8799  10.8881  10.9252  10.9389  10.9635  10.9917  11.0001
    11.0239  11.0478  11.0709  11.1191  11.1515  11.1821  11.1924  11.2263
    11.2578  11.3261  11.3750  11.4285  11.7230  11.7759  11.9084  11.9482
    13.0834  13.1753  13.1858  13.4879  13.5627  13.6569  13.7656  13.7852
    13.9026  13.9622  14.0399  14.1093  14.3505  14.3877  14.4431  14.5314
    14.5834  14.6548  14.6663  14.7031  14.7355  14.7493  14.7918  14.8354
    14.8501  14.8675  14.8727  14.9476  14.9808  14.9870  15.0269  15.0461
    15.0696  15.1298  15.1753  15.1852  15.2331  15.2512  15.2704  15.3226
    15.3492  15.3737  15.4053  15.4378  15.4403  15.4623  15.4853  15.5464
    15.5691  15.5906  15.6038  15.6048  15.6320  15.6496  15.6714  15.6980
    15.7074  15.7263  15.7501  15.7981  15.8186  15.8395  15.8944  15.8966
    15.9152  15.9355  15.9590  15.9814  15.9832  16.0062  16.0275  16.0934
    16.1103  16.1313  16.1376  16.1615  16.1885  16.2221  16.2318  16.2353
    16.2457  16.2596  16.2696  16.3068  16.3246  16.3430  16.3557  16.3775
    16.4127  16.4233  16.4283  16.4520  16.4632  16.4888  16.5093  16.5213

          k = 0.5000 0.2887-0.4082 (393160 PWs)   bands (ev):

   -43.6950 -43.5728 -43.5380 -43.5357 -43.5122 -43.5004 -43.4801 -43.4616
   -43.4574 -43.4461 -43.4426 -43.4373 -43.4350 -43.4241 -43.4217 -43.4095
   -43.4028 -43.3987 -43.3926 -43.3884 -43.3772 -43.3692 -43.3644 -43.3609
   -43.3561 -43.3493 -43.3380 -43.3240 -43.3172 -43.3017 -43.2875 -43.2563
   -20.1245 -20.0118 -20.0069 -20.0020 -20.0003 -19.9915 -19.9790 -19.9727
   -19.9613 -19.9540 -19.9478 -19.9450 -19.9387 -19.9319 -19.9287 -19.9228
   -19.9179 -19.9111 -19.9053 -19.9018 -19.9002 -19.8949 -19.8914 -19.8891
   -19.8830 -19.8733 -19.8680 -19.8609 -19.8574 -19.8539 -19.8450 -19.8433
   -19.8341 -19.8298 -19.8206 -19.8201 -19.8163 -19.8081 -19.7987 -19.7956
   -19.7832 -19.7804 -19.7709 -19.7595 -19.7537 -19.7533 -19.7455 -19.7373
   -19.7343 -19.7272 -19.7249 -19.7174 -19.7108 -19.7082 -19.7042 -19.6962
   -19.6901 -19.6869 -19.6830 -19.6804 -19.6774 -19.6689 -19.6657 -19.6589
   -19.6527 -19.6519 -19.6461 -19.6358 -19.6331 -19.6272 -19.6215 -19.6170
   -19.6145 -19.6062 -19.6052 -19.6011 -19.5960 -19.5921 -19.5904 -19.5824
   -19.5811 -19.5784 -19.5760 -19.5699 -19.5654 -19.5540 -19.5525 -19.5422
   -19.5395 -19.5315 -19.5286 -19.5188 -19.5087 -19.5038 -19.4776 -19.4733
    -3.3829  -3.2159  -2.9802  -2.9329  -2.8189  -2.7029  -2.2187  -2.1051
    -2.0763  -2.0551  -2.0164  -1.9837  -1.9606  -1.8793  -1.7996  -1.7638
    -1.7165  -1.6973  -1.6459  -1.6159  -1.6009  -1.5428  -1.4176  -1.4030
    -1.3436  -1.3138  -1.2784  -1.2437  -1.2185  -1.2060  -1.1921  -1.1737
    -1.1550  -1.1201  -1.1049  -1.0836  -1.0742  -1.0391  -1.0310  -1.0068
    -0.9716  -0.9588  -0.9488  -0.9227  -0.9060  -0.9028  -0.8718  -0.8617
    -0.8460  -0.8083  -0.7822  -0.7656  -0.7579  -0.7379  -0.7201  -0.6907
    -0.6730  -0.6522  -0.6491  -0.6299  -0.6135  -0.5891  -0.5868  -0.5457
     5.2084   5.3811   5.5007   5.5349   5.5890   5.6080   5.7257   5.8504
     5.9530   6.0176   6.0479   6.1338   6.1819   6.2874   6.3185   6.3951
     6.4047   6.4401   6.4895   6.5412   6.5907   6.6115   6.6790   6.7475
     6.7929   6.8339   6.8877   6.9014   6.9796   6.9899   7.0147   7.0743
     7.0798   7.1131   7.1545   7.2025   7.2332   7.2951   7.3318   7.3557
     7.3946   7.4264   7.4683   7.4991   7.5350   7.5605   7.5758   7.6663
     7.6857   7.7780   7.7962   7.8380   7.8615   7.8943   7.9282   7.9393
     8.0084   8.0481   8.0830   8.1131   8.1407   8.1576   8.1883   8.2373
     8.2506   8.2865   8.3622   8.4396   8.5174   8.5561   8.5749   8.6806
     8.7230   8.7855   8.8442   8.8792   8.9266   8.9488   8.9845   8.9964
     9.0088   9.0342   9.0437   9.0700   9.0855   9.1112   9.1308   9.1744
     9.1978   9.2025   9.2367   9.2488   9.2815   9.2817   9.3137   9.3435
     9.3624   9.3733   9.3823   9.4087   9.4109   9.4388   9.4541   9.4724
     9.4892   9.4950   9.5168   9.5267   9.5538   9.5699   9.5941   9.5991
     9.6389   9.6499   9.6564   9.6984   9.7100   9.7365   9.7609   9.7633
     9.7770   9.7993   9.8297   9.8366   9.8738   9.9104   9.9196   9.9379
     9.9678   9.9827  10.0402  10.0550  10.0657  10.0813  10.1027  10.1135
    10.1542  10.1564  10.1776  10.1929  10.1958  10.2299  10.2577  10.2716
    10.2845  10.3320  10.3539  10.3638  10.3886  10.3968  10.4193  10.4449
    10.4544  10.5016  10.5097  10.5267  10.5444  10.5619  10.5998  10.6023
    10.6252  10.6481  10.6946  10.6956  10.7085  10.7301  10.7458  10.7593
    10.7639  10.8031  10.8527  10.8843  10.9040  10.9120  10.9326  10.9520
    10.9689  10.9942  11.0172  11.0249  11.0968  11.1181  11.1726  11.2275
    11.2503  11.3971  11.4327  11.5070  11.6920  11.7259  11.7555  11.8112
    12.8698  13.0320  13.5836  13.6321  13.8415  13.9109  13.9699  14.0067
    14.0376  14.0685  14.1198  14.1537  14.2250  14.2920  14.3241  14.3971
    14.4318  14.5038  14.5521  14.5858  14.6269  14.6394  14.7688  14.8113
    14.8325  14.8700  14.8988  14.9005  14.9566  14.9999  15.0451  15.0873
    15.1267  15.1387  15.2132  15.2453  15.2581  15.3035  15.3103  15.3420
    15.3488  15.3905  15.4315  15.4433  15.4740  15.4920  15.5351  15.5703
    15.6017  15.6327  15.6593  15.6757  15.6898  15.7058  15.7360  15.7452
    15.7714  15.7953  15.8137  15.8211  15.8485  15.8779  15.8851  15.9012
    15.9302  15.9495  15.9615  15.9703  15.9849  15.9991  16.0138  16.0539
    16.0544  16.0919  16.0966  16.1169  16.1281  16.1461  16.1789  16.1931
    16.2207  16.2264  16.2483  16.2619  16.2915  16.2937  16.3077  16.3394
    16.3538  16.3654  16.3836  16.3966  16.4054  16.4340  16.4427  16.4630

          k =-0.5000 0.2887-0.4082 (393160 PWs)   bands (ev):

   -43.6950 -43.5728 -43.5380 -43.5357 -43.5122 -43.5004 -43.4801 -43.4616
   -43.4574 -43.4461 -43.4428 -43.4373 -43.4347 -43.4240 -43.4217 -43.4097
   -43.4020 -43.3990 -43.3921 -43.3896 -43.3771 -43.3697 -43.3647 -43.3601
   -43.3559 -43.3493 -43.3382 -43.3230 -43.3184 -43.3014 -43.2876 -43.2563
   -20.1247 -20.0126 -20.0078 -20.0069 -20.0017 -19.9931 -19.9881 -19.9746
   -19.9661 -19.9591 -19.9553 -19.9433 -19.9360 -19.9301 -19.9248 -19.9221
   -19.9193 -19.9083 -19.9020 -19.8997 -19.8981 -19.8951 -19.8911 -19.8852
   -19.8754 -19.8703 -19.8657 -19.8579 -19.8546 -19.8490 -19.8366 -19.8337
   -19.8306 -19.8250 -19.8227 -19.8172 -19.8117 -19.8030 -19.7963 -19.7869
   -19.7844 -19.7770 -19.7688 -19.7655 -19.7628 -19.7583 -19.7434 -19.7404
   -19.7371 -19.7350 -19.7301 -19.7219 -19.7172 -19.7064 -19.7031 -19.7010
   -19.6921 -19.6873 -19.6849 -19.6840 -19.6763 -19.6697 -19.6674 -19.6661
   -19.6572 -19.6542 -19.6529 -19.6405 -19.6316 -19.6285 -19.6229 -19.6156
   -19.6124 -19.6072 -19.6031 -19.6007 -19.5952 -19.5917 -19.5873 -19.5831
   -19.5808 -19.5752 -19.5739 -19.5698 -19.5626 -19.5558 -19.5508 -19.5486
   -19.5386 -19.5335 -19.5280 -19.5186 -19.5056 -19.5033 -19.4781 -19.4616
    -3.3399  -3.2972  -2.9367  -2.8966  -2.8395  -2.7111  -2.1625  -2.1373
    -2.0975  -2.0855  -2.0438  -1.9857  -1.9560  -1.9093  -1.7645  -1.7447
    -1.7278  -1.6939  -1.6511  -1.6119  -1.5805  -1.5579  -1.4272  -1.3977
    -1.3110  -1.2882  -1.2758  -1.2543  -1.2299  -1.2177  -1.2015  -1.1503
    -1.1346  -1.1240  -1.1152  -1.0787  -1.0734  -1.0458  -1.0242  -1.0134
    -0.9902  -0.9621  -0.9558  -0.9205  -0.9029  -0.8887  -0.8619  -0.8377
    -0.8199  -0.8099  -0.7931  -0.7831  -0.7550  -0.7417  -0.7414  -0.7078
    -0.6884  -0.6691  -0.6575  -0.6302  -0.6104  -0.5823  -0.5753  -0.5310
     5.2046   5.3052   5.4384   5.5630   5.6487   5.7280   5.7435   5.8360
     5.9174   5.9341   6.0118   6.1181   6.1771   6.3055   6.3633   6.3852
     6.4411   6.5176   6.5280   6.6004   6.6294   6.6560   6.6880   6.7475
     6.7778   6.7948   6.8348   6.8565   6.9019   6.9478   7.0214   7.0335
     7.0578   7.0822   7.1683   7.1815   7.2186   7.2954   7.3186   7.4009
     7.4210   7.4424   7.4684   7.5022   7.5452   7.5975   7.6396   7.6799
     7.7373   7.7742   7.7952   7.8103   7.8614   7.8860   7.9204   7.9706
     7.9957   8.0294   8.0561   8.0901   8.1174   8.1702   8.2049   8.2369
     8.2867   8.2972   8.3662   8.4584   8.5115   8.5254   8.6264   8.6506
     8.7005   8.7665   8.8311   8.8514   8.8646   8.8927   8.9336   8.9778
     9.0164   9.0344   9.0759   9.0847   9.1117   9.1307   9.1431   9.1766
     9.1790   9.1988   9.2351   9.2442   9.2494   9.2886   9.3089   9.3354
     9.3508   9.3655   9.3707   9.3941   9.4227   9.4294   9.4431   9.4632
     9.4892   9.5045   9.5190   9.5474   9.5590   9.5783   9.6228   9.6320
     9.6380   9.6449   9.6827   9.6979   9.7110   9.7253   9.7536   9.7853
     9.8009   9.8165   9.8421   9.8745   9.8868   9.9120   9.9399   9.9793
     9.9829  10.0185  10.0464  10.0538  10.0694  10.0831  10.0861  10.1098
    10.1469  10.1687  10.1855  10.1959  10.2172  10.2446  10.2610  10.2798
    10.2884  10.2980  10.3078  10.3421  10.3675  10.3721  10.3997  10.4256
    10.4393  10.4599  10.4831  10.4892  10.5158  10.5253  10.5867  10.6116
    10.6306  10.6637  10.6686  10.7136  10.7256  10.7477  10.7660  10.7816
    10.8036  10.8383  10.8515  10.8617  10.8802  10.9168  10.9377  10.9531
    10.9606  10.9695  11.0087  11.0624  11.0934  11.1235  11.1774  11.2395
    11.2538  11.3834  11.4619  11.5027  11.6913  11.7363  11.7741  11.8113
    12.7947  13.0973  13.5763  13.5998  13.8615  13.8977  13.9327  14.0479
    14.0607  14.1176  14.1637  14.1951  14.2534  14.3107  14.3395  14.3960
    14.4462  14.4905  14.5497  14.6262  14.6431  14.6942  14.7219  14.7562
    14.7975  14.8353  14.8835  14.9161  14.9664  14.9811  15.0438  15.0561
    15.0967  15.1416  15.1943  15.2060  15.2230  15.2463  15.2880  15.3180
    15.3305  15.3714  15.4033  15.4368  15.4871  15.4947  15.5341  15.5889
    15.6095  15.6535  15.6726  15.6955  15.7044  15.7154  15.7328  15.7544
    15.7598  15.7781  15.8014  15.8374  15.8616  15.8874  15.8903  15.9075
    15.9133  15.9273  15.9389  15.9574  15.9888  15.9999  16.0032  16.0291
    16.0356  16.0638  16.0873  16.1006  16.1273  16.1678  16.1798  16.1945
    16.2080  16.2271  16.2374  16.2484  16.2627  16.2812  16.3097  16.3386
    16.3513  16.3695  16.3742  16.4021  16.4200  16.4328  16.4370  16.4950

     the Fermi energy is    14.4752 ev

!    total energy              =   -8960.94177764 Ry
     total all-electron energy =    -77206.166948 Ry
     estimated scf accuracy    <       0.00000082 Ry
     smearing contrib. (-TS)   =      -0.00657299 Ry
     internal energy E=F+TS    =   -8960.93520465 Ry

     The total energy is F=E-TS. E is the sum of the following terms:
     one-electron contribution =   -1837.71455533 Ry
     hartree contribution      =    1416.34832500 Ry
     xc contribution           =   -1052.97660736 Ry
     ewald contribution        =   -3776.99859309 Ry
     one-center paw contrib.   =   -3709.59377386 Ry

     convergence has been achieved in  18 iterations

     Forces acting on atoms (cartesian axes, Ry/au):

     atom    1 type  3   force =     0.04041313    0.02051086   -0.01168305
     atom    2 type  2   force =    -0.07328065    0.00530750    0.00121913
     atom    3 type  3   force =     0.05342641   -0.00336210   -0.01313422
     atom    4 type  2   force =    -0.01043523   -0.03888487    0.06665484
     atom    5 type  1   force =    -0.00121180    0.00651505   -0.00529409
     atom    6 type  2   force =     0.04521617   -0.02583365   -0.05958297
     atom    7 type  3   force =    -0.03001717    0.04580717   -0.00626169
     atom    8 type  2   force =    -0.03697104    0.01463857    0.05376149
     atom    9 type  3   force =     0.03546890   -0.02802143   -0.00610780
     atom   10 type  2   force =     0.00129673    0.04746297    0.02945842
     atom   11 type  3   force =    -0.01583331   -0.00940618   -0.05086232
     atom   12 type  2   force =     0.00052426    0.04811343    0.02401521
     atom   13 type  1   force =    -0.00068743   -0.00585231    0.00338062
     atom   14 type  2   force =    -0.04034810    0.01776989   -0.02800536
     atom   15 type  3   force =     0.02671015   -0.02906492    0.03412392
     atom   16 type  2   force =    -0.03711533    0.03299269   -0.02788497
     atom   17 type  3   force =    -0.00076492   -0.05541154    0.04738869
     atom   18 type  2   force =    -0.04351175    0.02827261   -0.03128091
     atom   19 type  3   force =    -0.00096268   -0.02169875   -0.00278737
     atom   20 type  2   force =    -0.03912034    0.02824456    0.05669722
     atom   21 type  3   force =     0.01241170    0.00176008   -0.05929929
     atom   22 type  2   force =    -0.03457838    0.02134997    0.06520657
     atom   23 type  1   force =     0.00607388    0.00196523   -0.00168928
     atom   24 type  2   force =    -0.00524657    0.04335051   -0.06345800
     atom   25 type  1   force =     0.00157347   -0.00098428   -0.00471949
     atom   26 type  2   force =    -0.04558078    0.01593329   -0.03089230
     atom   27 type  3   force =     0.03101954   -0.00852249    0.01632566
     atom   28 type  2   force =    -0.07356532    0.03436386    0.02914882
     atom   29 type  3   force =     0.03915174   -0.03143110   -0.06914393
     atom   30 type  2   force =     0.00084659    0.00302584    0.00753710
     atom   31 type  1   force =    -0.00294408   -0.00145954    0.00325931
     atom   32 type  2   force =    -0.00290008   -0.04376761    0.06022591
     atom   33 type  3   force =    -0.06142182    0.05613664    0.01760708
     atom   34 type  2   force =     0.00315119    0.00155078   -0.00240048
     atom   35 type  3   force =    -0.03792813    0.00213701   -0.00487845
     atom   36 type  2   force =    -0.00283891   -0.00176146    0.08212603
     atom   37 type  1   force =    -0.00152362    0.00863020   -0.00296388
     atom   38 type  2   force =     0.00469285    0.00007174   -0.07922064
     atom   39 type  3   force =    -0.01073343    0.06234754    0.02320578
     atom   40 type  2   force =    -0.00106510   -0.00957282   -0.00512885
     atom   41 type  3   force =    -0.02045547    0.02453852    0.03381384
     atom   42 type  2   force =     0.04969831    0.01725059   -0.03348404
     atom   43 type  3   force =    -0.01476887    0.03427914   -0.03961232
     atom   44 type  2   force =     0.00275044   -0.04518447    0.06064721
     atom   45 type  1   force =    -0.00640157    0.00060512    0.00009266
     atom   46 type  2   force =     0.04177971    0.02187807   -0.02938270
     atom   47 type  3   force =    -0.03689493    0.00284458    0.03497130
     atom   48 type  2   force =    -0.04295517    0.02390818   -0.03256729
     atom   49 type  1   force =     0.00084126   -0.00160831    0.01063013
     atom   50 type  2   force =    -0.00522068    0.00160851   -0.08034844
     atom   51 type  3   force =    -0.00731414   -0.00129683    0.03309477
     atom   52 type  2   force =     0.03699151   -0.01647323    0.02848719
     atom   53 type  1   force =    -0.00808515   -0.00459907   -0.00352665
     atom   54 type  2   force =    -0.04238133   -0.02058177    0.03404849
     atom   55 type  3   force =     0.01675721   -0.02327859   -0.00156412
     atom   56 type  2   force =     0.03486856    0.06003131   -0.00403451
     atom   57 type  1   force =    -0.00381661   -0.00097587    0.00150519
     atom   58 type  2   force =     0.00604364   -0.04983050   -0.02817762
     atom   59 type  3   force =    -0.06800915    0.03546829    0.03309788
     atom   60 type  2   force =    -0.00011039    0.04149481    0.03343060
     atom   61 type  3   force =    -0.00659899    0.00618842   -0.01248020
     atom   62 type  2   force =     0.00341363   -0.00801433    0.00276018
     atom   63 type  1   force =    -0.00356932    0.00036843    0.00542376
     atom   64 type  2   force =     0.00278965   -0.07718897    0.02143132
     atom   65 type  1   force =     0.00264958    0.00292338    0.00161180
     atom   66 type  2   force =     0.03756380   -0.06245013    0.01303730
     atom   67 type  1   force =    -0.00558792   -0.00062540   -0.00202785
     atom   68 type  2   force =     0.00343909   -0.03969770    0.05390962
     atom   69 type  1   force =     0.00443282    0.00341830   -0.00575087
     atom   70 type  2   force =    -0.00718140   -0.04298124   -0.02928469
     atom   71 type  1   force =     0.00749542    0.00202754   -0.00172217
     atom   72 type  2   force =     0.07322847   -0.04054470   -0.03482490
     atom   73 type  3   force =    -0.02187339    0.02137179   -0.00783894
     atom   74 type  2   force =    -0.00597644    0.04042608   -0.05851088
     atom   75 type  3   force =     0.00350497    0.03004634   -0.00827078
     atom   76 type  2   force =     0.00069063    0.03656834    0.03059786
     atom   77 type  3   force =     0.00466716   -0.00398545   -0.00401513
     atom   78 type  2   force =     0.04295743    0.02395646   -0.02676607
     atom   79 type  1   force =    -0.00152176   -0.00230019    0.00105087
     atom   80 type  2   force =     0.00261026   -0.00366387    0.00326301
     atom   81 type  1   force =    -0.00033671   -0.00437050    0.00460068
     atom   82 type  2   force =     0.04053775   -0.02401285   -0.06193928
     atom   83 type  1   force =     0.00255359    0.00173317    0.00473828
     atom   84 type  2   force =     0.03673653   -0.05810555    0.00091875
     atom   85 type  1   force =     0.00021089   -0.00535288   -0.00075790
     atom   86 type  2   force =     0.00245134    0.01223953   -0.00293062
     atom   87 type  3   force =    -0.03272565   -0.03656580   -0.01128738
     atom   88 type  2   force =    -0.00116761    0.03719414    0.02094441
     atom   89 type  1   force =    -0.00362822    0.00414523   -0.00288701
     atom   90 type  2   force =     0.06955464   -0.04285978   -0.02499958
     atom   91 type  1   force =    -0.00226019   -0.00096896   -0.00677843
     atom   92 type  2   force =     0.04407055    0.01966195   -0.03061044
     atom   93 type  3   force =    -0.03817263   -0.01691906    0.01143993
     atom   94 type  2   force =    -0.00178714   -0.00632002    0.00150541
     atom   95 type  1   force =     0.00709583    0.00226550    0.00671934
     atom   96 type  2   force =     0.03355981   -0.06087866   -0.00488131
     atom   97 type  1   force =     0.00562129    0.00393099    0.00272759
     atom   98 type  2   force =     0.03608666   -0.06012453    0.00262280
     atom   99 type  1   force =    -0.00139808    0.00471840    0.00359453
     atom  100 type  2   force =     0.00510973   -0.07805172    0.03151099
     atom  101 type  1   force =    -0.00170344    0.00188121   -0.00916904
     atom  102 type  2   force =    -0.04336931   -0.02239119    0.03608067
     atom  103 type  3   force =     0.03363007    0.06242181   -0.03473745
     atom  104 type  2   force =    -0.03621765   -0.02830776    0.02101429
     atom  105 type  1   force =    -0.00473917   -0.00459633   -0.00419730
     atom  106 type  2   force =    -0.04389322    0.02480018   -0.02842065
     atom  107 type  3   force =     0.02225966    0.00531751   -0.01933660
     atom  108 type  2   force =    -0.00358129    0.07399225   -0.04160263
     atom  109 type  3   force =     0.01507165   -0.02570232    0.02526437
     atom  110 type  2   force =    -0.04375147    0.02629909   -0.02293285
     atom  111 type  3   force =     0.00040747   -0.02256067    0.00208922
     atom  112 type  2   force =     0.07967546    0.04941420    0.03136213
     atom  113 type  3   force =     0.03619283   -0.06027150    0.03677696
     atom  114 type  2   force =     0.00157240    0.03261802    0.02058556
     atom  115 type  1   force =    -0.00210542   -0.00214797    0.00434488
     atom  116 type  2   force =    -0.03532302   -0.05427020    0.00007737
     atom  117 type  1   force =     0.00849770   -0.00644360   -0.00265301
     atom  118 type  2   force =     0.07081561    0.00251531   -0.00428914
     atom  119 type  1   force =    -0.00272232    0.00048822    0.00048109
     atom  120 type  2   force =    -0.02967777    0.02270688   -0.02563421
     atom  121 type  1   force =     0.00566727    0.00283198   -0.00108264
     atom  122 type  2   force =    -0.03504438    0.01990211   -0.02192404
     atom  123 type  3   force =     0.05183125   -0.03337740    0.01647345
     atom  124 type  2   force =     0.02981124    0.05837442   -0.00228903
     atom  125 type  1   force =     0.00103854   -0.00201692   -0.00176312
     atom  126 type  2   force =    -0.00209258    0.00107090    0.00237725
     atom  127 type  1   force =    -0.00116236   -0.00449847    0.00136081
     atom  128 type  2   force =    -0.03504178   -0.02855287    0.03011561

     Total force =     0.588345     Total SCF correction =     0.002658


     Computing stress (Cartesian axis) and pressure

          total   stress  (Ry/bohr**3)                   (kbar)     P=      -88.67
  -0.00062516   0.00000652  -0.00001320          -91.96        0.96       -1.94
   0.00000652  -0.00058375  -0.00000039            0.96      -85.87       -0.06
  -0.00001320  -0.00000039  -0.00059938           -1.94       -0.06      -88.17


     BFGS Geometry Optimization
     Energy error            =      0.0E+00 Ry
     Gradient error          =      8.2E-02 Ry/Bohr
     Cell gradient error     =      9.2E+01 kbar

     number of scf cycles    =   1
     number of bfgs steps    =   0

     enthalpy           new  =   -8960.9417776387 Ry

     new trust radius        =       0.2836542681 bohr
     new conv_thr            =       0.0000010000 Ry

     new unit-cell volume =   7863.77854 a.u.^3 (  1165.29175 Ang^3 )
     density =      4.69055 g/cm^3

CELL_PARAMETERS (angstrom)
  11.805099475   0.001955972  -0.003957884
   5.904243659  10.235246492  -0.002080300
   5.899882780   3.412305260   9.643121501

ATOMIC_POSITIONS (angstrom)
Ti            0.0210552820        0.0106990319       -0.0060969248
N            11.7668057099        1.7104167323        1.2023152393
Ti            1.5028028714        0.8513278128        2.4039248785
N            13.2744977616        2.5404538232        3.6471930878
Al            2.9493116424        1.7095498532        4.8188013951
N            14.7784808157        3.4003412129        5.9921625014
Ti            4.4092809847        2.5831127413        7.2290822406
N            16.2106233409        4.2745142714        8.4620375621
Ti            1.4945355508        2.5442028161       -0.0037098008
N            13.2817131854        4.2912168112        1.2165015899
Ti            2.9427920046        3.4069819386        2.3837512458
N            14.7562825039        5.1446322721        3.6244448359
Al            4.4256431245        4.2619124641        4.8228029672
N            16.2099689787        5.9818825522        6.0081168998
Ti            5.9148780254        5.1028866602        7.2496035550
N            17.6866249383        6.8428971426        8.4189593860
Ti            2.9517103195        5.0887283333        0.0236615178
N            14.7344420182        6.8400179775        1.1843291990
Ti            4.4265896718        5.9593845778        2.4082875966
N            16.2116848571        7.6930795904        3.6409672129
Ti            5.9085390671        6.8246950530        4.7896088046
N            17.6890194113        8.5425610390        6.0561823094
Al           19.1852977766        7.6798334753        7.2264614881
N            19.1792936131        9.4071128291        8.3998913329
Al            4.4290031136        7.6759217734       -0.0040205184
N            16.2094240286        9.3923950245        1.1840121144
Ti            5.9193081397        8.5250696860        2.4177244893
N            17.6698084936       10.2550793216        3.6260935793
Ti            7.3985279011        9.3662013457        4.7839527306
N            19.1835419215       11.0918208160        6.0255960586
Al           20.6566600201       10.2368584289        7.2285224465
N            20.6565477073       11.9204958769        8.4638412562
Ti            2.9192816033        0.0297563046        0.0081986188
N             2.9527952702        1.7069974125        1.2033836141
Ti            4.4064895823        0.8546764124        2.4072546340
N             4.4246306322        2.5583455902        3.6582243015
Al            5.9004238571        1.7111417653        4.8190265846
N             5.9035530097        3.4123793203        5.9849017635
Ti            7.3705971646        2.5922283000        7.2434491689
N             7.3755105733        4.2604255527        8.4343033735
Ti            4.4166766062        2.5720943966        0.0161192898
N             4.4531096731        4.2739999497        1.1866530911
Ti            5.8946231524        3.4302508750        2.3886254015
N             5.9036030793        5.0945146796        3.6465076901
Al            7.3739425876        4.2657682341        4.8201006209
N             7.3989258950        5.9825648927        6.0103530151
Ti            8.8330231911        5.1200095171        7.2490667216
N             8.8297583537        6.8366925218        8.4194882159
Al            5.9038329185        5.1172735958        0.0035111718
N             5.9005697542        6.8246504423        1.1617147265
Ti            7.3745515148        5.9705115134        2.4260026105
N             7.3975084932        7.6683010287        3.6292181457
Al            8.8491266971        6.8218659848        4.8176943063
N             8.8311320190        8.5192280479        6.0429112201
Ti           10.3370359876        7.6652039102        7.2294934057
N            10.3463563050        9.4143472850        8.4338270131
Al            7.3774691701        7.6764146523       -0.0017644455
N             7.3824847783        9.3566396630        1.1883868715
Ti            8.8189991699        8.5484892390        2.4254945667
N             8.8542469187       10.2573371240        3.6312809949
Ti           10.3259642578        9.3863029680        4.8125068999
N            10.3310543810       11.0845971361        6.0260741229
Al           11.8025095002       10.2363445924        7.2326191746
N            11.8056908107       11.9016018709        8.4465872517
Al            5.9039298938        0.0025026151       -0.0011392714
N             5.9219876772        1.6741157286        1.2104353697
Al            7.3746099481        0.8537277107        2.4077454026
N             7.3791774085        2.5390532452        3.6425261887
Al            8.8548015137        1.7089135176        4.8165833904
N             8.8486300655        3.3904168590        6.0099435940
Al           10.3313667136        2.5612648560        7.2294631888
N            10.3654879729        4.2447706851        8.4178220881
Ti            7.3672198684        2.5709321783       -0.0065813381
N             7.3753895616        4.2865692336        1.1726280373
Ti            8.8554111456        3.4285340712        2.4039694672
N             8.8538172865        5.1376340250        3.6298549988
Ti           10.3309835546        4.2638644326        4.8169680639
N            10.3508139670        5.9841377631        6.0107272375
Al           11.8027296584        5.1178189707        7.2303901482
N            11.8047599240        6.8228076916        8.4371673921
Al            8.8544949925        5.1163221616       -0.0006209160
N             8.8756750671        6.8117829144        1.1703131295
Al           10.3309717661        5.9725815119        2.4102306446
N            10.3486517635        7.6470807810        3.6138589492
Al           11.8047224799        6.8219626024        4.8181465969
N            11.8057698174        8.5368359196        6.0226384743
Ti           13.2625354547        7.6587600092        7.2234444188
N            13.2788533608        9.4029244921        8.4458641592
Al           10.3288433810        7.6795741065       -0.0050434015
N            10.3668429987        9.3607690338        1.1890428157
Al           11.8045269273        8.5299837429        2.4037083666
N            11.8285452359       10.2464454149        3.5969026714
Ti           13.2607860368        9.3747396107        4.8239913741
N            13.2796205031       11.0859691912        6.0244315055
Al           14.7593398546       10.2378237321        7.2323031506
N            14.7730000647       11.9105987415        8.4318769256
Al            8.8567526366        0.0035172842       -0.0015476642
N             8.8724951107        1.6758173420        1.2040176073
Al           10.3280668102        0.8570035888        2.4096858222
N            10.3313231241        2.5195426183        3.6298613907
Al           11.8028804259        1.7086004728        4.8138132866
N            11.7810447713        3.4016391643        6.0430318795
Ti           19.2005099345       12.8284956368        7.2091794012
N            13.2597429321        4.2516309499        8.4459577207
Al           10.3274171908        2.5578814369       -0.0056754688
N            10.3069067241        4.2789066003        1.1873297340
Ti           11.8164552597        3.4161297768        2.3972088144
N            11.8028827228        5.1576378906        3.5912317383
Ti           13.2876712041        4.2530298110        4.8312387616
N            13.2569211234        5.9858408245        6.0117509567
Ti           14.7550075499        5.1077432101        7.2299416865
N            14.7961782457        6.8509809949        8.4508107930
Ti           11.8247878981        5.0876643103        0.0151553327
N            11.8066430998        6.8417985437        1.2123460547
Al           13.2798194570        5.9710462662        2.4090369525
N            13.2623908087        7.6495635221        3.6124434762
Al           14.7603142417        6.8218835570        4.8161678605
N            14.7926554894        8.5322600820        6.0209289879
Al           16.2294404054        7.6785735168        7.2285838048
N            16.2152839784        9.3958568168        8.4206007424
Al           13.2849599022        7.6793790893       -0.0050939650
N            13.2636364175        9.3939764572        1.1896744091
Ti           14.7839715303        8.5135777522        2.4148296073
N            14.7723907276       10.2671198244        3.6106779620
Al           16.2324898550        9.3830028431        4.8161129212
N            16.2307367520       11.0903121842        6.0238964932
Al           17.7063133302       10.2347849364        7.2285220329
N            17.6885365821       11.9279380642        8.4491413348



     Writing config-only to output data dir ../output/TiAlN.save/
     NEW-OLD atomic charge density approx. for the potential
     extrapolated charge  762.72150, renormalised to  800.00000

     total cpu time spent up to now is     1986.4 secs

     Self-consistent Calculation

     iteration #  1     ecut=   200.00 Ry     beta= 0.20
     Davidson diagonalization with overlap
     c_bands:  1 eigenvalues not converged
     ethr =  1.00E-06,  avg # of iterations = 51.5

     total cpu time spent up to now is     2812.5 secs

     total energy              =   -8908.03398897 Ry
     estimated scf accuracy    <     485.58169379 Ry

     iteration #  2     ecut=   200.00 Ry     beta= 0.20
     Davidson diagonalization with overlap
     ethr =  1.00E-02,  avg # of iterations =  4.0

     total cpu time spent up to now is     2913.4 secs

[...]
     9.4988   9.5049   9.5186   9.5344   9.5793   9.6036   9.6160   9.6500
     9.6551   9.6833   9.7117   9.7429   9.7497   9.7987   9.8020   9.8351
     9.8403   9.8623   9.9050   9.9336   9.9385   9.9521   9.9630   9.9969
    10.0211  10.0283  10.0829  10.0859  10.1080  10.1152  10.1516  10.1640
    10.2079  10.2438  10.2550  10.2930  10.2964  10.3189  10.3336  10.3474
    10.3867  10.4066  10.4222  10.4330  10.4630  10.5003  10.5225  10.5614
    10.5677  10.5996  10.6142  10.6351  10.6490  10.6922  10.7217  10.7388
    10.7560  10.7695  10.7954  10.8335  10.8492  10.8782  10.8912  10.9130
    10.9326  10.9622  10.9856  11.0043  11.0216  11.0377  11.0613  11.0877
    11.1031  11.1337  11.1494  11.1760  11.2327  11.2478  11.2565  11.2879
    11.2919  11.3102  11.3290  11.3431  11.3566  11.4171  11.4307  11.4425
    11.4739  11.4864  11.5256  11.5434  11.5718  11.6076  11.6121  11.6592
    11.6647  11.6734  11.7023  11.7186  11.7414  11.7674  11.7760  11.8400
    11.9358  12.0744  12.0899  12.2081  12.2885  12.3813  12.3878  12.4224
    13.0150  13.2336  13.7081  13.7339  14.0262  14.0697  14.1788  14.2266
    14.2523  14.2969  14.3955  14.4677  14.4775  14.5986  14.6299  14.7446
    14.8424  14.8844  14.9470  14.9916  15.0562  15.1101  15.1695  15.3036
    15.3399  15.3982  15.4176  15.4327  15.4798  15.4870  15.5499  15.6034
    15.6212  15.6408  15.7121  15.7569  15.8005  15.8360  15.8537  15.8740
    15.8997  15.9670  15.9946  16.0070  16.0338  16.0755  16.0932  16.1375
    16.1552  16.1772  16.2194  16.2443  16.2713  16.2790  16.3055  16.3374
    16.3532  16.3724  16.3943  16.4214  16.4423  16.4706  16.4879  16.5071
    16.5309  16.5394  16.5608  16.5760  16.5977  16.6106  16.6205  16.6476
    16.6706  16.6813  16.6922  16.7024  16.7570  16.7684  16.7971  16.8012
    16.8364  16.8683  16.8728  16.8972  16.9181  16.9484  16.9720  16.9779
    16.9901  17.0262  17.0322  17.0639  17.0859  17.0873  17.1252  17.1338

          k =-0.5080 0.2927-0.4140 (376782 PWs)   bands (ev):

   -43.2718 -43.1910 -43.1014 -43.0536 -43.0494 -43.0324 -42.9850 -42.9656
   -42.9420 -42.9219 -42.9208 -42.9174 -42.9034 -42.8902 -42.8858 -42.8795
   -42.8603 -42.8528 -42.8510 -42.8321 -42.8265 -42.8212 -42.8130 -42.8063
   -42.7780 -42.7720 -42.7614 -42.6823 -42.6813 -42.6570 -42.6357 -42.6011
   -19.6747 -19.6504 -19.6263 -19.5900 -19.5793 -19.5427 -19.5255 -19.5192
   -19.5096 -19.5037 -19.4966 -19.4831 -19.4786 -19.4723 -19.4670 -19.4595
   -19.4562 -19.4393 -19.4322 -19.4275 -19.4212 -19.4143 -19.4126 -19.4087
   -19.4074 -19.3858 -19.3794 -19.3783 -19.3661 -19.3559 -19.3524 -19.3466
   -19.3232 -19.3174 -19.3083 -19.2969 -19.2887 -19.2810 -19.2749 -19.2685
   -19.2647 -19.2541 -19.2454 -19.2353 -19.2307 -19.2260 -19.2188 -19.2167
   -19.2093 -19.1985 -19.1970 -19.1910 -19.1842 -19.1813 -19.1687 -19.1629
   -19.1474 -19.1416 -19.1340 -19.1303 -19.1262 -19.1216 -19.1100 -19.1070
   -19.1040 -19.0982 -19.0935 -19.0900 -19.0852 -19.0783 -19.0762 -19.0617
   -19.0544 -19.0513 -19.0411 -19.0358 -19.0317 -19.0182 -19.0147 -19.0088
   -19.0046 -18.9891 -18.9818 -18.9730 -18.9527 -18.9423 -18.9340 -18.9324
   -18.9237 -18.9109 -18.9067 -18.8785 -18.8541 -18.8413 -18.7749 -18.7320
    -3.0199  -2.9928  -2.6411  -2.5957  -2.5290  -2.3704  -1.8193  -1.7978
    -1.7560  -1.6861  -1.6699  -1.6181  -1.5733  -1.5117  -1.3969  -1.3593
    -1.3056  -1.2948  -1.2568  -1.2305  -1.1606  -1.1257  -1.0868  -1.0524
    -0.9546  -0.9198  -0.8716  -0.8641  -0.8111  -0.7683  -0.7468  -0.7075
    -0.6969  -0.6914  -0.6535  -0.6272  -0.5863  -0.5647  -0.5406  -0.5368
    -0.5200  -0.4766  -0.4596  -0.4165  -0.4028  -0.3869  -0.3582  -0.3343
    -0.3008  -0.2730  -0.2497  -0.2409  -0.2031  -0.1951  -0.1555  -0.1495
    -0.1279  -0.0633  -0.0487  -0.0310  -0.0027   0.0212   0.0453   0.0792
     5.6750   5.8511   5.9929   6.0531   6.1832   6.2357   6.2612   6.4016
     6.4774   6.4982   6.5160   6.6516   6.7120   6.8416   6.8715   6.9425
     6.9987   7.0837   7.1128   7.1363   7.1550   7.1803   7.2213   7.2699
     7.3207   7.3411   7.3692   7.4006   7.4110   7.4761   7.5085   7.5427
     7.5700   7.5896   7.6280   7.6673   7.6790   7.7706   7.7841   7.8378
     7.8797   7.8850   7.9527   7.9686   7.9862   8.0522   8.1184   8.1345
     8.1636   8.2150   8.2404   8.2794   8.3361   8.3438   8.3605   8.4123
     8.4680   8.4739   8.4915   8.5155   8.5757   8.6103   8.6312   8.6841
     8.7067   8.7529   8.7929   8.8977   8.9542   9.0255   9.1202   9.1447
     9.1835   9.2280   9.2850   9.3153   9.3518   9.3659   9.4150   9.4458
     9.4732   9.5083   9.5184   9.5480   9.5615   9.5958   9.6067   9.6431
     9.6839   9.7023   9.7155   9.7395   9.7457   9.7654   9.7894   9.8089
     9.8564   9.8883   9.9061   9.9266   9.9340   9.9577   9.9805  10.0027
    10.0195  10.0383  10.0699  10.1110  10.1225  10.1494  10.1560  10.1869
    10.2107  10.2184  10.2608  10.2656  10.2854  10.3089  10.3277  10.3561
    10.3998  10.4282  10.4347  10.4862  10.5032  10.5343  10.5535  10.5787
    10.5959  10.6270  10.6447  10.6623  10.6794  10.6939  10.7146  10.7296
    10.7442  10.7742  10.7905  10.8275  10.8378  10.8762  10.8840  10.9187
    10.9314  10.9524  10.9568  10.9821  10.9998  11.0169  11.0614  11.0791
    11.0964  11.1235  11.1412  11.1555  11.1678  11.1914  11.2151  11.2715
    11.3127  11.3366  11.3447  11.3709  11.4015  11.4207  11.4435  11.4701
    11.4939  11.5263  11.5347  11.5501  11.5739  11.6078  11.6181  11.6320
    11.6448  11.6644  11.6948  11.7091  11.7294  11.7506  11.7864  11.8233
    11.9597  12.0665  12.1035  12.1622  12.3331  12.3668  12.3962  12.4385
    12.9495  13.3192  13.6430  13.6954  14.0294  14.0811  14.1379  14.2574
    14.2945  14.3457  14.4458  14.4771  14.5322  14.5478  14.6831  14.7693
    14.8449  14.8583  14.9836  15.0425  15.0606  15.1689  15.1835  15.2810
    15.3069  15.3217  15.3651  15.4264  15.4550  15.4991  15.5337  15.5789
    15.6091  15.6207  15.6611  15.6915  15.7549  15.7877  15.7922  15.8207
    15.8845  15.9176  15.9636  15.9957  16.0325  16.0623  16.1400  16.1439
    16.1529  16.1953  16.2433  16.2641  16.2879  16.3076  16.3391  16.3468
    16.3752  16.3872  16.4202  16.4231  16.4557  16.4876  16.4905  16.4974
    16.5264  16.5344  16.5563  16.5652  16.5855  16.6003  16.6106  16.6225
    16.6289  16.6601  16.7047  16.7098  16.7141  16.7682  16.7817  16.8018
    16.8301  16.8429  16.8535  16.8885  16.8991  16.9310  16.9681  17.0001
    17.0297  17.0429  17.0506  17.0854  17.1112  17.1175  17.1287  17.1358

     the Fermi energy is    14.8266 ev

!    total energy              =   -8961.47668721 Ry
     total all-electron energy =    -77206.701858 Ry
     estimated scf accuracy    <          3.8E-09 Ry
     smearing contrib. (-TS)   =      -0.00346824 Ry
     internal energy E=F+TS    =   -8961.47321897 Ry

     The total energy is F=E-TS. E is the sum of the following terms:
     one-electron contribution =   -1683.47329688 Ry
     hartree contribution      =    1357.25190285 Ry
     xc contribution           =   -1057.11088296 Ry
     ewald contribution        =   -3868.20267173 Ry
     one-center paw contrib.   =   -3709.93827025 Ry

     convergence has been achieved in  23 iterations

     Forces acting on atoms (cartesian axes, Ry/au):

     atom    1 type  3   force =    -0.00000328    0.00001762   -0.00000329
     atom    2 type  2   force =     0.00005399    0.00004695   -0.00000910
     atom    3 type  3   force =     0.00003873    0.00003278   -0.00000870
     atom    4 type  2   force =    -0.00000169   -0.00002336    0.00002751
     atom    5 type  1   force =     0.00000975   -0.00002281   -0.00000243
     atom    6 type  2   force =    -0.00003794    0.00000120    0.00000110
     atom    7 type  3   force =     0.00000658   -0.00000808   -0.00001637
     atom    8 type  2   force =    -0.00000332   -0.00001363   -0.00003277
     atom    9 type  3   force =    -0.00000431    0.00004873    0.00000293
     atom   10 type  2   force =     0.00004470   -0.00003320   -0.00000038
     atom   11 type  3   force =     0.00002820   -0.00004187    0.00004109
     atom   12 type  2   force =     0.00001304   -0.00002530   -0.00003657
     atom   13 type  1   force =     0.00000824   -0.00003101    0.00000188
     atom   14 type  2   force =     0.00000295   -0.00001645    0.00001560
     atom   15 type  3   force =     0.00000812   -0.00000645   -0.00002654
     atom   16 type  2   force =     0.00005483    0.00000128   -0.00000097
     atom   17 type  3   force =    -0.00001144   -0.00002248    0.00000375
     atom   18 type  2   force =     0.00000946    0.00001106   -0.00000417
     atom   19 type  3   force =    -0.00001516   -0.00001709    0.00000982
     atom   20 type  2   force =     0.00001142    0.00002757   -0.00001785
     atom   21 type  3   force =     0.00003611   -0.00003258   -0.00002570
     atom   22 type  2   force =    -0.00000876    0.00003891    0.00001343
     atom   23 type  1   force =    -0.00000888   -0.00001255   -0.00003194
     atom   24 type  2   force =    -0.00001528    0.00000228    0.00001212
     atom   25 type  1   force =     0.00000166    0.00000391   -0.00000408
     atom   26 type  2   force =     0.00000880    0.00001860   -0.00001268
     atom   27 type  3   force =     0.00000754   -0.00004059    0.00002308
     atom   28 type  2   force =    -0.00000632    0.00001399   -0.00000739
     atom   29 type  3   force =     0.00004074    0.00000965   -0.00000545
     atom   30 type  2   force =    -0.00001556    0.00000650    0.00001461
     atom   31 type  1   force =     0.00002365   -0.00002112    0.00000344
     atom   32 type  2   force =    -0.00000144    0.00000413    0.00000497
     atom   33 type  3   force =     0.00002033    0.00001667    0.00000023
     atom   34 type  2   force =    -0.00002300    0.00000159   -0.00000362
     atom   35 type  3   force =     0.00001434    0.00001206    0.00001448
     atom   36 type  2   force =    -0.00002770    0.00001841   -0.00001859
     atom   37 type  1   force =    -0.00003795    0.00001063    0.00001444
     atom   38 type  2   force =    -0.00000087    0.00000804    0.00006017
     atom   39 type  3   force =     0.00001997    0.00001211    0.00001995
     atom   40 type  2   force =     0.00000452   -0.00001101   -0.00005111
     atom   41 type  3   force =    -0.00000783    0.00001699    0.00001227
     atom   42 type  2   force =     0.00001546   -0.00002021    0.00000031
     atom   43 type  3   force =    -0.00002737   -0.00000456   -0.00000162
     atom   44 type  2   force =    -0.00005624   -0.00001246    0.00000247
     atom   45 type  1   force =    -0.00003940    0.00000780    0.00004216
     atom   46 type  2   force =     0.00000540   -0.00000418    0.00001823
     atom   47 type  3   force =    -0.00000263    0.00000430   -0.00003162
     atom   48 type  2   force =    -0.00001538    0.00001992   -0.00002084
     atom   49 type  1   force =     0.00002425    0.00001350    0.00001633
     atom   50 type  2   force =    -0.00000562    0.00002047    0.00000938
     atom   51 type  3   force =    -0.00000736   -0.00002551    0.00001731
     atom   52 type  2   force =     0.00000536    0.00003093    0.00000901
     atom   53 type  1   force =    -0.00000557   -0.00001850    0.00001888
     atom   54 type  2   force =    -0.00000724    0.00000268   -0.00001665
     atom   55 type  3   force =    -0.00001701    0.00000295   -0.00000976
     atom   56 type  2   force =     0.00001364   -0.00001593    0.00000017
     atom   57 type  1   force =    -0.00001904    0.00001163    0.00004700
     atom   58 type  2   force =     0.00001879   -0.00001273    0.00000960
     atom   59 type  3   force =    -0.00001609    0.00001035    0.00001639
     atom   60 type  2   force =    -0.00002000   -0.00001951   -0.00000465
     atom   61 type  3   force =    -0.00001033    0.00000773    0.00000298
     atom   62 type  2   force =     0.00000782   -0.00002404   -0.00001908
     atom   63 type  1   force =    -0.00002309    0.00000947    0.00002966
     atom   64 type  2   force =     0.00002290    0.00000370   -0.00000405
     atom   65 type  1   force =    -0.00003343    0.00001014    0.00001434
     atom   66 type  2   force =    -0.00001656   -0.00002910    0.00000147
     atom   67 type  1   force =    -0.00002432   -0.00001504   -0.00001867
     atom   68 type  2   force =    -0.00000744    0.00002970   -0.00002767
     atom   69 type  1   force =    -0.00003500    0.00001632   -0.00000394
     atom   70 type  2   force =     0.00000323    0.00001620    0.00001819
     atom   71 type  1   force =    -0.00003614    0.00000843    0.00000794
     atom   72 type  2   force =    -0.00003208    0.00002921    0.00000654
     atom   73 type  3   force =     0.00000159   -0.00000912    0.00002455
     atom   74 type  2   force =    -0.00003431   -0.00000115    0.00000544
     atom   75 type  3   force =    -0.00000867    0.00003521   -0.00001518
     atom   76 type  2   force =    -0.00000582   -0.00004332   -0.00002160
     atom   77 type  3   force =    -0.00000928    0.00002634    0.00001329
     atom   78 type  2   force =     0.00002159    0.00000967    0.00000312
     atom   79 type  1   force =    -0.00002964    0.00002546   -0.00000035
     atom   80 type  2   force =     0.00001731   -0.00000702   -0.00000049
     atom   81 type  1   force =    -0.00001560   -0.00004361    0.00000066
     atom   82 type  2   force =    -0.00001794    0.00002100   -0.00001620
     atom   83 type  1   force =    -0.00001805   -0.00004790   -0.00000016
     atom   84 type  2   force =     0.00002877    0.00002437   -0.00003496
     atom   85 type  1   force =     0.00000125   -0.00003564   -0.00001235
     atom   86 type  2   force =     0.00001082    0.00003430   -0.00001314
     atom   87 type  3   force =    -0.00003257   -0.00004390   -0.00000722
     atom   88 type  2   force =     0.00001955    0.00000033   -0.00005044
     atom   89 type  1   force =    -0.00002960    0.00000461    0.00000678
     atom   90 type  2   force =    -0.00001385   -0.00001984   -0.00001408
     atom   91 type  1   force =     0.00000549   -0.00002530   -0.00004407
     atom   92 type  2   force =    -0.00000050    0.00001490   -0.00004027
     atom   93 type  3   force =    -0.00003247   -0.00000530   -0.00002362
     atom   94 type  2   force =    -0.00000005   -0.00001222   -0.00001017
     atom   95 type  1   force =    -0.00002617   -0.00000318    0.00001298
     atom   96 type  2   force =     0.00000561   -0.00002573    0.00001959
     atom   97 type  1   force =    -0.00000090    0.00002321    0.00000334
     atom   98 type  2   force =    -0.00001769    0.00000684    0.00001867
     atom   99 type  1   force =     0.00001166    0.00003598   -0.00002183
     atom  100 type  2   force =    -0.00000422    0.00003233   -0.00000194
     atom  101 type  1   force =     0.00001497   -0.00002354    0.00001699
     atom  102 type  2   force =     0.00000799   -0.00000583    0.00000026
     atom  103 type  3   force =     0.00000497    0.00002673    0.00000024
     atom  104 type  2   force =    -0.00001711   -0.00000083   -0.00002395
     atom  105 type  1   force =     0.00004243    0.00001367    0.00000376
     atom  106 type  2   force =    -0.00000215   -0.00001633    0.00003430
     atom  107 type  3   force =    -0.00002013   -0.00001012   -0.00000056
     atom  108 type  2   force =     0.00000607   -0.00003856   -0.00002980
     atom  109 type  3   force =     0.00002397    0.00000520   -0.00001180
     atom  110 type  2   force =    -0.00000029    0.00003008    0.00000529
     atom  111 type  3   force =     0.00000713   -0.00000108    0.00000725
     atom  112 type  2   force =    -0.00000093   -0.00000967   -0.00000187
     atom  113 type  3   force =     0.00002157   -0.00005073    0.00003552
     atom  114 type  2   force =    -0.00000849   -0.00000314   -0.00002738
     atom  115 type  1   force =     0.00003110    0.00001822    0.00000717
     atom  116 type  2   force =     0.00002991    0.00002226   -0.00001314
     atom  117 type  1   force =     0.00002031   -0.00003087    0.00001728
     atom  118 type  2   force =     0.00004157    0.00002905    0.00002542
     atom  119 type  1   force =     0.00004918   -0.00000942    0.00001047
     atom  120 type  2   force =     0.00000092    0.00006030   -0.00000392
     atom  121 type  1   force =     0.00002618   -0.00000840    0.00003941
     atom  122 type  2   force =    -0.00002152   -0.00000859    0.00001388
     atom  123 type  3   force =     0.00002742    0.00001566    0.00000697
     atom  124 type  2   force =     0.00001004   -0.00000951   -0.00002398
     atom  125 type  1   force =     0.00002001    0.00001896   -0.00000936
     atom  126 type  2   force =    -0.00001636   -0.00000809    0.00001672
     atom  127 type  1   force =     0.00002211    0.00000149   -0.00000083
     atom  128 type  2   force =    -0.00004365   -0.00003397    0.00001827

     Total force =     0.000419     Total SCF correction =     0.000263
     SCF correction compared to forces is large: reduce conv_thr to get better values


     Computing stress (Cartesian axis) and pressure

          total   stress  (Ry/bohr**3)                   (kbar)     P=       -0.01
  -0.00000014   0.00000002  -0.00000001           -0.02        0.00       -0.00
   0.00000002  -0.00000004   0.00000008            0.00       -0.01        0.01
  -0.00000001   0.00000008  -0.00000011           -0.00        0.01       -0.02


     Writing all to output data dir ../output/TiAlN.save/
 
     init_run     :     98.67s CPU    100.48s WALL (       2 calls)
     electrons    :  23549.29s CPU  23918.45s WALL (      21 calls)
     update_pot   :    207.08s CPU    208.89s WALL (      19 calls)
     forces       :    495.83s CPU    505.22s WALL (      21 calls)
     stress       :   4458.66s CPU   4501.63s WALL (      21 calls)

     Called by init_run:
     wfcinit      :     76.04s CPU     77.42s WALL (       2 calls)
     potinit      :      6.26s CPU      6.39s WALL (       2 calls)
     hinit0       :     13.14s CPU     13.24s WALL (       2 calls)

     Called by electrons:
     c_bands      :  20174.05s CPU  20462.71s WALL (     241 calls)
     sum_band     :   3021.54s CPU   3066.43s WALL (     241 calls)
     v_of_rho     :    115.79s CPU    124.48s WALL (     251 calls)
     newd         :     57.17s CPU     70.55s WALL (     251 calls)
     PAW_pot      :     38.45s CPU     39.64s WALL (     270 calls)
     mix_rho      :    152.33s CPU    162.73s WALL (     241 calls)

     Called by c_bands:
     init_us_2    :    124.13s CPU    125.85s WALL (     503 calls)
     init_us_2:cp :    124.13s CPU    125.85s WALL (     503 calls)
     cegterg      :  19116.83s CPU  19397.52s WALL (     247 calls)

     Called by *egterg:
     cdiaghg      :    170.13s CPU    173.03s WALL (    1338 calls)
     h_psi        :  12164.75s CPU  12324.76s WALL (    1376 calls)
     s_psi        :   2095.27s CPU   2118.11s WALL (    1376 calls)
     g_psi        :     19.65s CPU     19.82s WALL (    1127 calls)

     Called by h_psi:
     h_psi:calbec :   2042.96s CPU   2064.15s WALL (    1376 calls)
     vloc_psi     :   7973.49s CPU   8063.04s WALL (    1376 calls)
     add_vuspsi   :   2110.43s CPU   2136.38s WALL (    1376 calls)

     General routines
     calbec       :   3202.57s CPU   3234.22s WALL (    1741 calls)
     fft          :     85.13s CPU     87.18s WALL (    3316 calls)
     ffts         :     88.36s CPU     89.72s WALL (    4996 calls)
     fftw         :   7407.44s CPU   7491.88s WALL (  714678 calls)
 
     Parallel routines
 
     PWSCF        :      8h 1m CPU      8h 8m WALL

 
   This run was terminated on:   1:44:56   3May2026            

=------------------------------------------------------------------------------=
   JOB DONE.
=------------------------------------------------------------------------------=
