
     Program PWSCF v.7.1 starts on  7May2026 at 10:22:20 

     This program is part of the open-source Quantum ESPRESSO suite
     for quantum simulation of materials; please cite
         "P. Giannozzi et al., J. Phys.:Condens. Matter 21 395502 (2009);
         "P. Giannozzi et al., J. Phys.:Condens. Matter 29 465901 (2017);
         "P. Giannozzi et al., J. Chem. Phys. 152 154105 (2020);
          URL http://www.quantum-espresso.org", 
     in publications or presentations arising from this work. More details at
     http://www.quantum-espresso.org/quote

     Parallel version (MPI & OpenMP), running on      32 processor cores
     Number of MPI processes:                32
     Threads/MPI process:                     1

     MPI processes distributed on     1 nodes
     91437 MiB available memory on the printing compute node when the environment starts
 
     Reading input from TiAlN_relax64atomsk2cutoff135.in

     Current dimensions of program PWSCF are:
     Max number of different atomic species (ntypx) = 10
     Max number of k-points (npk) = 150000
     Max angular momentum in pseudopotentials (lmaxx) =  4

     File ../output/TiAlN.update deleted, as requested

     File ../output/TiAlN.bfgs deleted, as requested
     file Al.pbe-n-kjpaw_psl.1.0.0.UPF: wavefunction(s)  3S 3P renormalized
     file N.pbe-n-kjpaw_psl.1.0.0.UPF: wavefunction(s)  2S renormalized
     file Ti.pbe-spn-kjpaw_psl.1.0.0.UPF: wavefunction(s)  3S 3P 3D renormalized
 
     K-points division:     npool     =       4
     R & G space division:  proc/nbgrp/npool/nimage =       8
     Subspace diagonalization in iterative solution of the eigenvalue problem:
     one sub-group per band group will be used
     scalapack distributed-memory algorithm (size of sub-group:  2*  2 procs)

 
     Parallelization info
     --------------------
     sticks:   dense  smooth     PW     G-vecs:    dense   smooth      PW
     Min        2649    1325    350               290187   102567   14026
     Max        2651    1327    351               290190   102568   14029
     Sum       21201   10605   2801              2321501   820537  112211
 
     Using Slab Decomposition
 


     bravais-lattice index     =            0
     lattice parameter (alat)  =      15.7036  a.u.
     unit-cell volume          =    3872.5735 (a.u.)^3
     number of atoms/cell      =           64
     number of atomic types    =            3
     number of electrons       =       400.00
     number of Kohn-Sham states=          240
     kinetic-energy cutoff     =     135.0000  Ry
     charge density cutoff     =    1080.0000  Ry
     scf convergence threshold =      1.0E-06
     mixing beta               =       0.2000
     number of iterations used =            8  local-TF  mixing
     energy convergence thresh.=      1.0E-05
     force convergence thresh. =      1.0E-04
     press convergence thresh. =      5.0E-01
     Exchange-correlation= SLA  PW   PBX  PBC
                           (   1   4   3   4   0   0   0)
     nstep                     =           50


     celldm(1)=  15.703624  celldm(2)=   0.000000  celldm(3)=   0.000000
     celldm(4)=   0.000000  celldm(5)=   0.000000  celldm(6)=   0.000000

     crystal axes: (cart. coord. in units of alat)
               a(1) = (   1.000000   0.000000   0.000000 )  
               a(2) = (   0.000000   1.000000   0.000000 )  
               a(3) = (   0.000000   0.000000   1.000000 )  

     reciprocal axes: (cart. coord. in units 2 pi/alat)
               b(1) = (  1.000000  0.000000  0.000000 )  
               b(2) = (  0.000000  1.000000  0.000000 )  
               b(3) = (  0.000000  0.000000  1.000000 )  


     PseudoPot. # 1 for Al read from file:
     ../../pseudo/Al.pbe-n-kjpaw_psl.1.0.0.UPF
     MD5 check sum: 502b6b27b9c6270cab5dd1084b96fa6d
     Pseudo is Projector augmented-wave + core cor, Zval =  3.0
     Generated using &quot;atomic&quot; code by A. Dal Corso  v.6.3
     Shape of augmentation charge: PSQ
     Using radial grid of 1135 points,  6 beta functions with: 
                l(1) =   0
                l(2) =   0
                l(3) =   1
                l(4) =   1
                l(5) =   2
                l(6) =   2
     Q(r) pseudized with 0 coefficients 


     PseudoPot. # 2 for N  read from file:
     ../../pseudo/N.pbe-n-kjpaw_psl.1.0.0.UPF
     MD5 check sum: 14c48229446f9f2d411169a3abcbc3fa
     Pseudo is Projector augmented-wave + core cor, Zval =  5.0
     Generated using &quot;atomic&quot; code by A. Dal Corso  v.6.3
     Shape of augmentation charge: PSQ
     Using radial grid of 1085 points,  4 beta functions with: 
                l(1) =   0
                l(2) =   0
                l(3) =   1
                l(4) =   1
     Q(r) pseudized with 0 coefficients 


     PseudoPot. # 3 for Ti read from file:
     ../../pseudo/Ti.pbe-spn-kjpaw_psl.1.0.0.UPF
     MD5 check sum: 01f69b0d8ba4438b2e03ac6ea4af1c0b
     Pseudo is Projector augmented-wave + core cor, Zval = 12.0
     Generated using &quot;atomic&quot; code by A. Dal Corso  v.6.2.2
     Shape of augmentation charge: PSQ
     Using radial grid of 1177 points,  6 beta functions with: 
                l(1) =   0
                l(2) =   0
                l(3) =   1
                l(4) =   1
                l(5) =   2
                l(6) =   2
     Q(r) pseudized with 0 coefficients 


     atomic species   valence    mass     pseudopotential
        Al             3.00    26.98200     Al( 1.00)
        N              5.00    14.00700     N ( 1.00)
        Ti            12.00    47.86700     Ti( 1.00)

     No symmetry found



   Cartesian axes

     site n.     atom                  positions (alat units)
         1           Al  tau(   1) = (   0.0000000   0.0000000   0.0000000  )
         2           Ti  tau(   2) = (   0.2500000   0.0000000   0.0000000  )
         3           Al  tau(   3) = (   0.0000000   0.2500000   0.2500000  )
         4           Ti  tau(   4) = (   0.2500000   0.2500000   0.2500000  )
         5           N   tau(   5) = (   0.2500000   0.0000000   0.2500000  )
         6           N   tau(   6) = (   0.0000000   0.0000000   0.2500000  )
         7           N   tau(   7) = (   0.2500000   0.2500000   0.0000000  )
         8           N   tau(   8) = (   0.0000000   0.2500000   0.0000000  )
         9           Al  tau(   9) = (   0.0000000   0.0000000   0.5000000  )
        10           Al  tau(  10) = (   0.2500000   0.0000000   0.5000000  )
        11           Al  tau(  11) = (   0.0000000   0.2500000   0.7500000  )
        12           Al  tau(  12) = (   0.2500000   0.2500000   0.7500000  )
        13           N   tau(  13) = (   0.2500000   0.0000000   0.7500000  )
        14           N   tau(  14) = (   0.0000000   0.0000000   0.7500000  )
        15           N   tau(  15) = (   0.2500000   0.2500000   0.5000000  )
        16           N   tau(  16) = (   0.0000000   0.2500000   0.5000000  )
        17           Ti  tau(  17) = (   0.0000000   0.5000000   0.0000000  )
        18           Ti  tau(  18) = (   0.2500000   0.5000000   0.0000000  )
        19           Al  tau(  19) = (   0.0000000   0.7500000   0.2500000  )
        20           Al  tau(  20) = (   0.2500000   0.7500000   0.2500000  )
        21           N   tau(  21) = (   0.2500000   0.5000000   0.2500000  )
        22           N   tau(  22) = (   0.0000000   0.5000000   0.2500000  )
        23           N   tau(  23) = (   0.2500000   0.7500000   0.0000000  )
        24           N   tau(  24) = (   0.0000000   0.7500000   0.0000000  )
        25           Ti  tau(  25) = (   0.0000000   0.5000000   0.5000000  )
        26           Al  tau(  26) = (   0.2500000   0.5000000   0.5000000  )
        27           Al  tau(  27) = (   0.0000000   0.7500000   0.7500000  )
        28           Ti  tau(  28) = (   0.2500000   0.7500000   0.7500000  )
        29           N   tau(  29) = (   0.2500000   0.5000000   0.7500000  )
        30           N   tau(  30) = (   0.0000000   0.5000000   0.7500000  )
        31           N   tau(  31) = (   0.2500000   0.7500000   0.5000000  )
        32           N   tau(  32) = (   0.0000000   0.7500000   0.5000000  )
        33           Al  tau(  33) = (   0.5000000   0.0000000   0.0000000  )
        34           Ti  tau(  34) = (   0.7500000   0.0000000   0.0000000  )
        35           Ti  tau(  35) = (   0.5000000   0.2500000   0.2500000  )
        36           Al  tau(  36) = (   0.7500000   0.2500000   0.2500000  )
        37           N   tau(  37) = (   0.7500000   0.0000000   0.2500000  )
        38           N   tau(  38) = (   0.5000000   0.0000000   0.2500000  )
        39           N   tau(  39) = (   0.7500000   0.2500000   0.0000000  )
        40           N   tau(  40) = (   0.5000000   0.2500000   0.0000000  )
        41           Ti  tau(  41) = (   0.5000000   0.0000000   0.5000000  )
        42           Al  tau(  42) = (   0.7500000   0.0000000   0.5000000  )
        43           Ti  tau(  43) = (   0.5000000   0.2500000   0.7500000  )
        44           Ti  tau(  44) = (   0.7500000   0.2500000   0.7500000  )
        45           N   tau(  45) = (   0.7500000   0.0000000   0.7500000  )
        46           N   tau(  46) = (   0.5000000   0.0000000   0.7500000  )
        47           N   tau(  47) = (   0.7500000   0.2500000   0.5000000  )
        48           N   tau(  48) = (   0.5000000   0.2500000   0.5000000  )
        49           Ti  tau(  49) = (   0.5000000   0.5000000   0.0000000  )
        50           Ti  tau(  50) = (   0.7500000   0.5000000   0.0000000  )
        51           Ti  tau(  51) = (   0.5000000   0.7500000   0.2500000  )
        52           Al  tau(  52) = (   0.7500000   0.7500000   0.2500000  )
        53           N   tau(  53) = (   0.7500000   0.5000000   0.2500000  )
        54           N   tau(  54) = (   0.5000000   0.5000000   0.2500000  )
        55           N   tau(  55) = (   0.7500000   0.7500000   0.0000000  )
        56           N   tau(  56) = (   0.5000000   0.7500000   0.0000000  )
        57           Al  tau(  57) = (   0.5000000   0.5000000   0.5000000  )
        58           Al  tau(  58) = (   0.7500000   0.5000000   0.5000000  )
        59           Ti  tau(  59) = (   0.5000000   0.7500000   0.7500000  )
        60           Ti  tau(  60) = (   0.7500000   0.7500000   0.7500000  )
        61           N   tau(  61) = (   0.7500000   0.5000000   0.7500000  )
        62           N   tau(  62) = (   0.5000000   0.5000000   0.7500000  )
        63           N   tau(  63) = (   0.7500000   0.7500000   0.5000000  )
        64           N   tau(  64) = (   0.5000000   0.7500000   0.5000000  )

     number of k points=     8  Gaussian smearing, width (Ry)=  0.0050
                       cart. coord. in units 2pi/alat
        k(    1) = (   0.0000000   0.0000000   0.0000000), wk =   0.2500000
        k(    2) = (   0.0000000   0.0000000  -0.5000000), wk =   0.2500000
        k(    3) = (   0.0000000  -0.5000000  -0.5000000), wk =   0.2500000
        k(    4) = (  -0.5000000  -0.5000000  -0.5000000), wk =   0.2500000
        k(    5) = (  -0.5000000   0.0000000   0.0000000), wk =   0.2500000
        k(    6) = (   0.0000000  -0.5000000   0.0000000), wk =   0.2500000
        k(    7) = (  -0.5000000   0.0000000   0.5000000), wk =   0.2500000
        k(    8) = (  -0.5000000   0.5000000   0.0000000), wk =   0.2500000

     Dense  grid:  2321501 G-vectors     FFT dimensions: ( 180, 180, 180)

     Smooth grid:   820537 G-vectors     FFT dimensions: ( 120, 120, 120)

     Estimated max dynamical RAM per process >     819.86 MB

     Estimated total dynamical RAM >      23.96 GB

     Initial potential from superposition of free atoms

     starting charge     399.9395, renormalised to     400.0000
     Starting wfcs are  352 randomized atomic wfcs
     Checking if some PAW data can be deallocated... 

     total cpu time spent up to now is       26.5 secs

     Self-consistent Calculation

     iteration #  1     ecut=   135.00 Ry     beta= 0.20
     Davidson diagonalization with overlap
     ethr =  1.00E-02,  avg # of iterations =  2.0

     total cpu time spent up to now is       53.9 secs

     total energy              =   -4470.54773680 Ry
     estimated scf accuracy    <      10.60144525 Ry

     iteration #  2     ecut=   135.00 Ry     beta= 0.20
     Davidson diagonalization with overlap
     ethr =  2.65E-03,  avg # of iterations =  1.0

     total cpu time spent up to now is       76.4 secs

     total energy              =   -4469.43786450 Ry
     estimated scf accuracy    <       5.20715986 Ry

     iteration #  3     ecut=   135.00 Ry     beta= 0.20
     Davidson diagonalization with overlap
     ethr =  1.30E-03,  avg # of iterations =  2.0

     total cpu time spent up to now is      102.8 secs

     total energy              =   -4469.96605275 Ry
     estimated scf accuracy    <       0.49058489 Ry

     iteration #  4     ecut=   135.00 Ry     beta= 0.20
     Davidson diagonalization with overlap
     ethr =  1.23E-04,  avg # of iterations = 14.4

     total cpu time spent up to now is      138.2 secs

     total energy              =   -4469.98010417 Ry
     estimated scf accuracy    <       0.30370233 Ry

     iteration #  5     ecut=   135.00 Ry     beta= 0.20
     Davidson diagonalization with overlap
     ethr =  7.59E-05,  avg # of iterations =  2.0

     total cpu time spent up to now is      162.5 secs

     total energy              =   -4469.96984852 Ry
     estimated scf accuracy    <       0.13664530 Ry

     iteration #  6     ecut=   135.00 Ry     beta= 0.20
     Davidson diagonalization with overlap
     ethr =  3.42E-05,  avg # of iterations =  6.2

     total cpu time spent up to now is      192.0 secs

     total energy              =   -4469.97894164 Ry
     estimated scf accuracy    <       0.03531752 Ry

     iteration #  7     ecut=   135.00 Ry     beta= 0.20
     Davidson diagonalization with overlap
     ethr =  8.83E-06,  avg # of iterations = 15.0

     total cpu time spent up to now is      225.3 secs

     total energy              =   -4469.97851351 Ry
     estimated scf accuracy    <       0.02352388 Ry

     iteration #  8     ecut=   135.00 Ry     beta= 0.20
     Davidson diagonalization with overlap
     ethr =  5.88E-06,  avg # of iterations =  2.0

     total cpu time spent up to now is      249.9 secs

     total energy              =   -4469.97859152 Ry
     estimated scf accuracy    <       0.01070847 Ry

     iteration #  9     ecut=   135.00 Ry     beta= 0.20
     Davidson diagonalization with overlap
     ethr =  2.68E-06,  avg # of iterations =  9.6

     total cpu time spent up to now is      281.2 secs

     total energy              =   -4469.97947109 Ry
     estimated scf accuracy    <       0.00139328 Ry

     iteration # 10     ecut=   135.00 Ry     beta= 0.20
     Davidson diagonalization with overlap
     c_bands:  1 eigenvalues not converged
     ethr =  3.48E-07,  avg # of iterations =  9.8

     total cpu time spent up to now is      311.9 secs

     total energy              =   -4469.97964261 Ry
     estimated scf accuracy    <       0.00036766 Ry

     iteration # 11     ecut=   135.00 Ry     beta= 0.20
     Davidson diagonalization with overlap
     ethr =  9.19E-08,  avg # of iterations = 10.2

     total cpu time spent up to now is      344.1 secs

     total energy              =   -4469.97956069 Ry
     estimated scf accuracy    <       0.00090695 Ry

     iteration # 12     ecut=   135.00 Ry     beta= 0.20
     Davidson diagonalization with overlap
     ethr =  9.19E-08,  avg # of iterations =  6.0

     total cpu time spent up to now is      372.8 secs

     total energy              =   -4469.97965022 Ry
     estimated scf accuracy    <       0.00012025 Ry

     iteration # 13     ecut=   135.00 Ry     beta= 0.20
     Davidson diagonalization with overlap
     ethr =  3.01E-08,  avg # of iterations =  4.1

     total cpu time spent up to now is      398.9 secs

     total energy              =   -4469.97966150 Ry
     estimated scf accuracy    <       0.00001271 Ry

     iteration # 14     ecut=   135.00 Ry     beta= 0.20
     Davidson diagonalization with overlap
     ethr =  3.18E-09,  avg # of iterations =  7.5

     total cpu time spent up to now is      433.6 secs

     total energy              =   -4469.97965915 Ry
     estimated scf accuracy    <       0.00003894 Ry

     iteration # 15     ecut=   135.00 Ry     beta= 0.20
     Davidson diagonalization with overlap
     ethr =  3.18E-09,  avg # of iterations =  6.1

     total cpu time spent up to now is      462.5 secs

     total energy              =   -4469.97966319 Ry
     estimated scf accuracy    <       0.00000130 Ry

     iteration # 16     ecut=   135.00 Ry     beta= 0.20
     Davidson diagonalization with overlap
     ethr =  3.26E-10,  avg # of iterations =  4.0

     total cpu time spent up to now is      488.7 secs

     End of self-consistent calculation

          k = 0.0000 0.0000 0.0000 (102399 PWs)   bands (ev):

   -42.3418 -42.2254 -42.2018 -42.1783 -42.1644 -42.1555 -42.1400 -42.1227
   -42.0865 -41.9588 -41.6119 -41.5992 -41.5565 -41.5144 -41.2892 -40.9966
   -20.3464 -19.9683 -19.6337 -19.5717 -18.9954 -18.8992 -18.8545 -18.8220
   -18.8012 -18.7390 -18.7290 -18.7176 -18.7044 -18.6621 -18.6234 -18.6202
   -18.6087 -18.5882 -18.5363 -18.5307 -18.4974 -18.4841 -18.4451 -18.4381
   -18.3882 -18.3765 -18.3595 -18.3036 -18.2975 -18.2710 -18.1419 -18.1370
   -18.1179 -18.1046 -18.0405 -18.0256 -17.9998 -17.9925 -17.9533 -17.9362
   -17.8198 -17.7963 -17.6297 -17.5928 -17.3226 -17.2600 -16.6330 -15.6234
    -3.5186  -2.4598  -2.4149  -2.3420  -2.3111  -1.9011  -1.8586  -1.8439
    -1.8219  -1.7387  -1.0469  -0.9178  -0.9011  -0.8687  -0.8304  -0.8132
    -0.7789  -0.6670  -0.4176  -0.4035  -0.3235  -0.2763  -0.2675  -0.2650
     1.0183   1.8412   1.8618   1.9203   2.0065   2.2578   2.3521   2.3613
     4.7005   4.9482   6.3793   6.4203   6.4529   6.7746   6.8507   6.9643
     6.9674   6.9879   7.1369   7.1807   7.2089   7.2289   7.2714   7.3367
     7.3775   7.6325   7.8165   7.9608   8.1671   8.3501   8.4035   8.4392
     8.4470   8.5391   8.6326   8.6876   8.7403   8.7988   8.8236   8.9555
     9.0550   9.1210   9.1578   9.3592   9.4735   9.5061   9.5915   9.6785
     9.7540   9.7632   9.8210   9.8329   9.9105  10.0692  10.0926  10.2201
    10.3457  10.5269  10.8357  10.8567  10.9372  10.9450  11.0117  11.0440
    11.2106  11.2566  11.2786  11.3131  11.3273  11.5271  11.7856  11.8489
    11.8904  11.9534  11.9737  12.0478  12.0810  12.0865  12.1421  12.1565
    12.1841  12.2242  12.2736  12.3025  12.3346  12.3790  12.4116  12.4497
    12.4583  12.5135  12.5312  12.5540  12.5790  12.6805  12.6899  12.9366
    13.1796  13.2867  13.3873  13.4081  13.4853  13.5102  13.5370  13.5623
    13.5822  13.6098  13.6606  13.7727  13.8904  13.9618  14.0717  14.1258
    14.2174  14.3058  14.3981  14.5250  14.7356  14.8300  14.9742  15.0195
    15.0274  15.1776  15.2107  15.2547  15.3156  15.4613  15.5382  15.6286
    15.6925  15.7932  15.8575  15.9134  15.9359  16.0177  16.0490  16.0999
    16.1391  16.2174  16.3874  16.4338  16.6530  16.6992  16.7043  16.7229
    16.7582  16.8210  16.8845  16.9028  17.0186  17.1636  17.2293  17.2646

          k = 0.0000 0.0000-0.5000 (102546 PWs)   bands (ev):

   -42.3418 -42.2249 -42.2026 -42.1782 -42.1645 -42.1557 -42.1394 -42.1228
   -42.0866 -41.9588 -41.6119 -41.5992 -41.5565 -41.5144 -41.2892 -40.9966
   -20.3464 -19.9683 -19.6337 -19.5717 -18.9954 -18.8993 -18.8545 -18.8220
   -18.8012 -18.7386 -18.7185 -18.7052 -18.6837 -18.6705 -18.6324 -18.6223
   -18.6147 -18.5994 -18.5643 -18.5566 -18.5282 -18.4441 -18.4165 -18.4093
   -18.3841 -18.3762 -18.3618 -18.3154 -18.2985 -18.2809 -18.1419 -18.1367
   -18.1145 -18.1085 -18.0392 -18.0271 -17.9959 -17.9927 -17.9557 -17.9339
   -17.8201 -17.7968 -17.6300 -17.5942 -17.3226 -17.2600 -16.6330 -15.6234
    -3.2383  -3.0678  -2.3067  -2.2088  -2.1128  -1.9777  -1.9183  -1.7263
    -1.6675  -1.5089  -1.4868  -1.3993  -0.9832  -0.8147  -0.6977  -0.6664
    -0.6054  -0.5652  -0.5176  -0.4754  -0.3683  -0.3608  -0.2779  -0.1320
     1.2877   1.3366   1.9722   2.0551   2.1335   2.1665   2.2331   2.3873
     5.3088   5.3691   5.7471   6.3029   6.5485   6.5533   6.8916   6.9685
     6.9973   7.0150   7.0805   7.1727   7.2113   7.3282   7.3447   7.5648
     7.6967   7.7414   7.8220   7.9355   7.9843   8.0776   8.1446   8.2220
     8.2237   8.2644   8.4642   8.4766   8.6033   8.7905   8.9709   9.0084
     9.1106   9.1776   9.3557   9.4271   9.5735   9.6540   9.7003   9.7516
     9.9009   9.9626   9.9755  10.0273  10.1303  10.1824  10.2220  10.2724
    10.3368  10.5320  10.5547  10.6093  10.6864  10.8612  10.8724  10.8880
    10.9393  11.0002  11.1362  11.2744  11.3003  11.4802  11.5255  11.6235
    11.7089  11.7801  11.8179  11.8475  11.9995  12.0202  12.0756  12.1224
    12.1721  12.2060  12.2420  12.3238  12.3555  12.4772  12.5685  12.5814
    12.6308  12.6555  12.6803  12.7397  12.7987  12.8975  12.9814  13.0310
    13.0555  13.1672  13.1875  13.2672  13.3163  13.3682  13.5556  13.6166
    13.6280  13.7498  13.7976  13.9671  14.1174  14.1450  14.2885  14.3403
    14.4860  14.5870  14.6064  14.7036  14.8666  14.9708  14.9990  15.1220
    15.1519  15.2099  15.2542  15.2740  15.3246  15.4366  15.4574  15.5314
    15.5955  15.7776  15.8004  15.8644  15.9011  15.9848  15.9956  16.0410
    16.0667  16.1684  16.2536  16.3250  16.3963  16.6080  16.6544  16.6969
    16.7506  16.7750  16.8360  16.9442  17.1326  17.1568  17.2307  17.2974

          k = 0.0000-0.5000-0.5000 (102596 PWs)   bands (ev):

   -42.3418 -42.2249 -42.2022 -42.1788 -42.1654 -42.1544 -42.1396 -42.1228
   -42.0867 -41.9588 -41.6119 -41.5992 -41.5565 -41.5144 -41.2892 -40.9966
   -20.3464 -19.9683 -19.6337 -19.5717 -18.9954 -18.8993 -18.8545 -18.8219
   -18.8012 -18.7386 -18.7193 -18.7188 -18.6959 -18.6653 -18.6228 -18.6224
   -18.6079 -18.5891 -18.5574 -18.5205 -18.5144 -18.4822 -18.4389 -18.4298
   -18.3933 -18.3698 -18.3574 -18.3071 -18.2973 -18.2720 -18.1421 -18.1369
   -18.1179 -18.1055 -18.0401 -18.0256 -17.9991 -17.9930 -17.9531 -17.9368
   -17.8200 -17.7964 -17.6298 -17.5927 -17.3226 -17.2600 -16.6330 -15.6234
    -2.9807  -2.8562  -2.8140  -2.6241  -1.9425  -1.8344  -1.8043  -1.6881
    -1.4349  -1.3993  -1.3068  -1.2775  -1.1503  -1.1379  -1.1097  -1.0614
    -0.4923  -0.4578  -0.4528  -0.4104  -0.2584  -0.2515  -0.2111  -0.1865
     1.4922   1.5540   1.5986   1.7233   2.1611   2.2686   2.3006   2.4242
     5.4039   5.6491   5.8845   6.1626   6.5703   6.6590   6.6996   6.7680
     6.9143   7.0684   7.0944   7.1756   7.2790   7.5724   7.6037   7.6309
     7.6769   7.6832   7.7795   7.8995   7.9318   8.0153   8.1061   8.1962
     8.3037   8.3907   8.4523   8.5150   8.6081   8.7539   8.8309   8.9400
     9.0268   9.0972   9.2286   9.3071   9.4659   9.5014   9.5164   9.6736
     9.7830   9.8592   9.9802   9.9997  10.0704  10.1829  10.2358  10.3579
    10.4118  10.4798  10.5916  10.6407  10.8235  11.0285  11.0532  11.0900
    11.1486  11.2209  11.2412  11.3031  11.3743  11.4177  11.4877  11.5858
    11.6932  11.7370  11.7624  11.7780  11.8311  11.9034  11.9633  12.0300
    12.0884  12.2023  12.2407  12.3152  12.5899  12.6342  12.7629  12.7982
    12.8034  12.8359  12.8542  12.8928  12.9209  12.9400  12.9606  12.9809
    12.9997  13.0212  13.0856  13.1246  13.1977  13.2326  13.5061  13.6463
    13.7159  13.7480  13.8619  13.9745  13.9871  14.0645  14.2724  14.3895
    14.4873  14.5024  14.5844  14.6941  14.7549  14.8393  14.9191  14.9369
    14.9755  15.1043  15.1599  15.3168  15.3304  15.4660  15.4905  15.5322
    15.5570  15.5673  15.6882  15.7340  15.7799  15.8715  15.9060  15.9865
    16.1000  16.1493  16.2788  16.3348  16.3812  16.4185  16.5413  16.5565
    16.6372  16.6695  16.6953  16.8303  17.0894  17.1046  17.2691  17.3005

          k =-0.5000-0.5000-0.5000 (102712 PWs)   bands (ev):

   -42.3418 -42.2248 -42.1994 -42.1782 -42.1644 -42.1425 -42.1264 -42.0894
   -42.0161 -41.9771 -41.9563 -41.5580 -41.5153 -41.2895 -41.2025 -41.1616
   -19.9815 -19.7543 -19.6875 -19.6318 -19.5706 -18.9955 -18.8993 -18.8386
   -18.8238 -18.8153 -18.7384 -18.7179 -18.7166 -18.6933 -18.6659 -18.6225
   -18.6084 -18.5997 -18.5886 -18.5454 -18.5087 -18.4953 -18.4801 -18.4470
   -18.4333 -18.4047 -18.3751 -18.3593 -18.3077 -18.2868 -18.2339 -18.2117
   -18.2020 -18.0656 -18.0279 -18.0151 -18.0013 -17.8580 -17.8205 -17.7603
   -17.7372 -17.7147 -17.6668 -17.3231 -17.2605 -16.6463 -16.4362 -16.3743
    -2.7390  -2.5980  -2.5520  -2.3805  -2.3545  -2.3015  -2.1701  -2.0776
    -1.6285  -1.5581  -1.5110  -1.4892  -1.4201  -1.3845  -1.3139  -1.1506
     0.2392   0.2799   0.3046   0.4347   0.5015   0.5572   0.5822   0.6821
     1.0451   1.1084   1.1400   1.1832   1.2326   1.2735   1.3335   1.4718
     5.5353   5.8579   5.9681   6.1664   6.3729   6.4770   6.8660   7.0354
     7.1744   7.2390   7.4482   7.6424   7.8770   8.1328   8.2282   8.3280
     8.3540   8.3966   8.4223   8.4373   8.4760   8.5375   8.5830   8.6135
     8.6537   8.6973   8.7093   8.7822   8.8619   8.8808   8.9693   9.0560
     9.0802   9.1046   9.1172   9.1599   9.2464   9.2662   9.3086   9.3618
     9.3812   9.4168   9.4522   9.4944   9.5897   9.6565   9.8807   9.9081
     9.9556  10.0008  10.0699  10.2432  10.3315  10.3768  10.4083  10.5061
    10.5578  10.6106  10.7064  10.7516  10.8345  10.9091  10.9487  10.9687
    11.0298  11.0581  11.0716  11.1689  11.2657  11.3276  11.4677  11.8188
    11.9583  12.0761  12.3108  12.3246  12.4793  12.5407  12.6020  12.6897
    12.7746  12.7982  12.9455  12.9814  13.0791  13.1275  13.1894  13.4187
    13.7516  13.8961  13.9305  14.0338  14.0524  14.0832  14.1628  14.2044
    14.3352  14.3927  14.4461  14.5140  14.5575  14.6077  14.6432  14.6862
    14.7321  14.7699  14.8721  14.9263  14.9924  15.0502  15.1831  15.2146
    15.2474  15.2883  15.3377  15.3532  15.4129  15.4286  15.4951  15.5389
    15.5538  15.6322  15.7749  15.8199  15.8399  15.9569  16.0187  16.0299
    16.1116  16.1496  16.1897  16.2824  16.3029  16.3633  16.4195  16.4959
    16.5301  16.6140  16.6440  16.6999  16.7189  16.7973  16.8267  16.8682

          k =-0.5000 0.0000 0.0000 (102546 PWs)   bands (ev):

   -42.3418 -42.2250 -42.1990 -42.1783 -42.1643 -42.1425 -42.1264 -42.0895
   -42.0161 -41.9771 -41.9563 -41.5580 -41.5153 -41.2895 -41.2025 -41.1616
   -19.9815 -19.7542 -19.6875 -19.6318 -19.5706 -18.9955 -18.8993 -18.8385
   -18.8238 -18.8153 -18.7385 -18.7252 -18.7171 -18.7020 -18.6625 -18.6210
   -18.6092 -18.5998 -18.5876 -18.5334 -18.5118 -18.4876 -18.4709 -18.4455
   -18.4428 -18.4021 -18.3830 -18.3602 -18.3124 -18.2835 -18.2328 -18.2122
   -18.2014 -18.0650 -18.0288 -18.0143 -18.0010 -17.8578 -17.8203 -17.7603
   -17.7371 -17.7147 -17.6669 -17.3231 -17.2605 -16.6463 -16.4362 -16.3743
    -3.2221  -2.9376  -2.1835  -2.1295  -2.0967  -2.0640  -1.9527  -1.8957
    -1.8239  -1.7009  -1.6323  -1.5584  -1.4053  -1.3132  -1.3000  -1.2945
    -0.2045  -0.0444   0.6195   0.6570   0.7043   0.7280   0.7778   0.8727
     0.8819   1.0314   1.0776   1.1326   1.2311   1.3287   1.3383   1.3428
     4.8077   5.3804   5.3906   6.0510   6.8044   7.0412   7.2207   7.2625
     7.3012   7.4980   7.6904   7.7235   7.7386   7.9317   8.1250   8.2023
     8.2338   8.2504   8.3583   8.5212   8.5704   8.6307   8.6629   8.6934
     8.7395   8.7519   8.7884   8.8641   8.8785   8.8865   8.9183   8.9754
     8.9819   9.0180   9.0887   9.1055   9.1267   9.1442   9.2277   9.2431
     9.2924   9.4351   9.5393   9.7651   9.8006   9.8264   9.8868   9.8880
    10.0411  10.0797  10.1130  10.2052  10.2461  10.3119  10.3533  10.5045
    10.5690  10.6175  10.6474  10.7277  10.7952  10.8355  10.8605  10.8674
    10.9738  11.0971  11.4385  11.4475  11.4811  11.5629  11.6007  11.7629
    11.7694  11.8182  11.9780  12.2977  12.4297  12.5408  12.7810  12.8184
    12.9148  13.0442  13.0593  13.1369  13.1634  13.1871  13.2739  13.3233
    13.4790  13.6014  13.7490  13.8560  13.8986  13.9508  13.9978  14.1749
    14.2260  14.2401  14.2546  14.3276  14.4370  14.5218  14.5685  14.7119
    14.7285  14.8603  14.9409  15.0331  15.0637  15.0995  15.1336  15.1759
    15.1980  15.2510  15.3292  15.4032  15.4495  15.4835  15.5441  15.5505
    15.6325  15.6964  15.7432  15.7563  15.8505  16.0331  16.0532  16.1049
    16.1883  16.2708  16.4001  16.4530  16.5129  16.5236  16.5705  16.5975
    16.6380  16.6692  16.7070  16.7132  16.7447  16.7562  16.7716  16.7972

          k = 0.0000-0.5000 0.0000 (102546 PWs)   bands (ev):

   -42.3418 -42.2251 -42.2018 -42.1788 -42.1654 -42.1550 -42.1386 -42.1233
   -42.0866 -41.9588 -41.6119 -41.5992 -41.5565 -41.5144 -41.2892 -40.9966
   -20.3464 -19.9683 -19.6337 -19.5717 -18.9954 -18.8993 -18.8545 -18.8220
   -18.8012 -18.7387 -18.7191 -18.7083 -18.6867 -18.6629 -18.6227 -18.6194
   -18.6067 -18.5901 -18.5825 -18.5713 -18.5301 -18.4483 -18.4175 -18.4031
   -18.3890 -18.3712 -18.3560 -18.3196 -18.2982 -18.2804 -18.1418 -18.1368
   -18.1160 -18.1062 -18.0406 -18.0266 -17.9974 -17.9913 -17.9556 -17.9336
   -17.8202 -17.7967 -17.6303 -17.5939 -17.3226 -17.2600 -16.6330 -15.6234
    -3.2273  -3.0912  -2.3051  -2.1505  -2.1224  -2.0082  -1.8417  -1.7967
    -1.6116  -1.5640  -1.5490  -1.4312  -0.8360  -0.7141  -0.7028  -0.6442
    -0.6099  -0.5864  -0.5687  -0.4254  -0.3542  -0.3423  -0.3217  -0.2900
     1.2601   1.3801   1.9757   2.0952   2.1047   2.2154   2.2423   2.2904
     5.4078   5.5296   5.5809   5.7678   6.6922   6.7285   6.7944   6.9581
     7.0345   7.1020   7.1343   7.1583   7.2073   7.2092   7.2915   7.3502
     7.5428   7.6953   7.8551   7.8963   7.9590   8.0231   8.0839   8.1169
     8.3098   8.3249   8.7658   8.7976   8.8604   8.9962   9.0018   9.0418
     9.0845   9.1388   9.3461   9.4458   9.5499   9.6022   9.6277   9.8203
     9.9378  10.0449  10.1048  10.2178  10.2583  10.3377  10.3716  10.4502
    10.4928  10.5303  10.5790  10.6004  10.7480  10.7600  10.9134  10.9239
    10.9703  11.0465  11.0658  11.0725  11.1954  11.2447  11.2980  11.5733
    11.5848  11.6887  11.8863  11.9112  12.0627  12.0897  12.1453  12.1807
    12.2052  12.2668  12.2706  12.3046  12.3428  12.4005  12.4158  12.4959
    12.5122  12.5557  12.6303  12.8006  12.8629  12.9272  12.9728  13.0101
    13.0748  13.1069  13.1715  13.2382  13.2451  13.4333  13.4910  13.5649
    13.6217  13.7731  13.8187  13.9158  13.9726  14.1360  14.1990  14.2385
    14.3701  14.5199  14.5435  14.6529  14.8093  14.8494  14.9214  14.9594
    14.9969  15.0708  15.1553  15.1995  15.2959  15.3540  15.4493  15.5820
    15.6770  15.7585  15.7753  15.7906  15.8379  15.9488  15.9890  16.0175
    16.0641  16.1372  16.1670  16.1702  16.3469  16.4141  16.5892  16.6534
    16.6980  16.7309  16.7642  17.0307  17.1504  17.2117  17.2349  17.2770

          k =-0.5000 0.0000 0.5000 (102596 PWs)   bands (ev):

   -42.3418 -42.2248 -42.1995 -42.1782 -42.1643 -42.1426 -42.1264 -42.0894
   -42.0161 -41.9771 -41.9563 -41.5580 -41.5153 -41.2895 -41.2025 -41.1616
   -19.9815 -19.7542 -19.6875 -19.6318 -19.5706 -18.9955 -18.8993 -18.8386
   -18.8238 -18.8153 -18.7384 -18.7162 -18.7054 -18.6835 -18.6694 -18.6286
   -18.6137 -18.5996 -18.5967 -18.5540 -18.5422 -18.5251 -18.4445 -18.4239
   -18.4127 -18.3981 -18.3781 -18.3604 -18.3111 -18.2822 -18.2331 -18.2195
   -18.2038 -18.0655 -18.0308 -18.0173 -18.0015 -17.8496 -17.8203 -17.7607
   -17.7373 -17.7149 -17.6708 -17.3231 -17.2605 -16.6463 -16.4362 -16.3743
    -2.9602  -2.8082  -2.6509  -2.4658  -2.0307  -1.9544  -1.8840  -1.8202
    -1.7302  -1.6748  -1.5644  -1.5307  -1.4866  -1.4668  -1.3214  -1.2452
     0.0184   0.1296   0.2136   0.3289   0.7438   0.7891   0.8585   0.9392
     1.0096   1.0448   1.1148   1.1455   1.1660   1.1981   1.3300   1.4006
     5.4145   5.7393   5.8129   5.8335   6.5430   6.6658   6.7984   7.1063
     7.2705   7.3469   7.4483   7.5967   7.6469   7.6784   7.9546   8.2716
     8.4071   8.5040   8.5773   8.6295   8.6586   8.6867   8.7176   8.7305
     8.7543   8.8096   8.8839   8.9020   8.9122   8.9542   9.0369   9.0630
     9.1266   9.1550   9.1727   9.1870   9.2303   9.2827   9.3293   9.3589
     9.4637   9.4923   9.5901   9.6306   9.6846   9.7224   9.7373   9.8180
     9.8508   9.9002  10.0200  10.0981  10.1046  10.1868  10.2160  10.2527
    10.3700  10.3904  10.4238  10.4562  10.6032  10.7429  10.8249  11.2145
    11.2813  11.2938  11.3617  11.3723  11.4982  11.5793  11.7345  11.8335
    11.8721  11.9445  12.1490  12.2211  12.2666  12.2818  12.4176  12.6195
    12.6383  12.9293  13.0863  13.1279  13.2411  13.2718  13.3655  13.4983
    13.7128  13.7895  13.8650  13.9363  14.1409  14.1660  14.2255  14.2654
    14.3031  14.3480  14.3859  14.4296  14.5603  14.5845  14.6925  14.7537
    14.8095  14.9079  14.9564  14.9855  15.0475  15.0578  15.0628  15.1819
    15.2326  15.3027  15.3192  15.3433  15.4233  15.4935  15.5309  15.6065
    15.6220  15.6617  15.7424  15.7787  15.7849  15.9357  16.0773  16.1133
    16.2341  16.2900  16.3078  16.3589  16.4412  16.4802  16.5299  16.5597
    16.6173  16.6295  16.6881  16.7054  16.7512  16.8045  16.8239  16.8646

          k =-0.5000 0.5000 0.0000 (102596 PWs)   bands (ev):

   -42.3418 -42.2249 -42.1990 -42.1784 -42.1644 -42.1428 -42.1262 -42.0894
   -42.0161 -41.9771 -41.9563 -41.5580 -41.5153 -41.2895 -41.2025 -41.1616
   -19.9815 -19.7543 -19.6875 -19.6318 -19.5706 -18.9955 -18.8993 -18.8385
   -18.8238 -18.8154 -18.7385 -18.7166 -18.7083 -18.6864 -18.6629 -18.6197
   -18.6075 -18.5995 -18.5857 -18.5675 -18.5548 -18.5284 -18.4475 -18.4314
   -18.4146 -18.3904 -18.3761 -18.3547 -18.3059 -18.2868 -18.2349 -18.2184
   -18.2042 -18.0643 -18.0328 -18.0166 -18.0013 -17.8497 -17.8201 -17.7610
   -17.7375 -17.7148 -17.6706 -17.3231 -17.2605 -16.6463 -16.4362 -16.3743
    -2.9668  -2.7830  -2.6121  -2.5672  -2.0770  -1.9387  -1.8649  -1.6998
    -1.6964  -1.6218  -1.5793  -1.5616  -1.5094  -1.3953  -1.3557  -1.3524
     0.0371   0.1142   0.2108   0.3302   0.7162   0.8092   0.8778   0.9716
     1.0154   1.0802   1.1098   1.1291   1.1558   1.2490   1.2844   1.3068
     5.5222   5.6551   5.8111   5.9693   6.2427   6.3900   6.7293   6.7762
     7.2764   7.2896   7.4444   7.5491   7.9188   7.9722   8.2168   8.3790
     8.4006   8.4943   8.5033   8.5672   8.6124   8.7214   8.7530   8.7827
     8.8260   8.8584   8.8736   8.9006   8.9146   8.9542   9.0032   9.0184
     9.0772   9.1860   9.2265   9.2667   9.3051   9.3697   9.4237   9.5244
     9.6015   9.6258   9.6482   9.7087   9.7314   9.7747   9.7900   9.8577
     9.8736   9.9262   9.9839  10.0140  10.0669  10.1555  10.2131  10.3198
    10.3312  10.3414  10.4134  10.6333  10.6694  10.7404  10.8495  10.8903
    11.2058  11.3494  11.3940  11.5189  11.5891  11.6012  11.6673  11.7261
    11.7851  11.8782  11.9517  12.1655  12.2524  12.3508  12.3615  12.4645
    12.5480  12.8770  12.8898  13.0732  13.1413  13.2303  13.2540  13.4404
    13.6532  13.8347  13.9139  13.9459  14.0534  14.1155  14.2228  14.2531
    14.2782  14.4056  14.4862  14.5605  14.6100  14.6621  14.6791  14.7313
    14.7745  14.8624  14.9381  14.9802  14.9976  15.0563  15.0660  15.1091
    15.1810  15.2023  15.2762  15.3015  15.3718  15.4301  15.4611  15.4859
    15.5931  15.6379  15.6843  15.7701  15.8098  15.9818  16.0621  16.0917
    16.1901  16.1991  16.2364  16.2860  16.3582  16.4381  16.4662  16.5070
    16.5250  16.5793  16.6141  16.6530  16.6925  16.7253  16.7724  16.8141

     the Fermi energy is    14.5863 ev

!    total energy              =   -4469.97966315 Ry
     total all-electron energy =    -38592.592248 Ry
     estimated scf accuracy    <       0.00000044 Ry
     smearing contrib. (-TS)   =      -0.00485763 Ry
     internal energy E=F+TS    =   -4469.97480552 Ry

     The total energy is F=E-TS. E is the sum of the following terms:
     one-electron contribution =    -839.62568561 Ry
     hartree contribution      =     688.37986924 Ry
     xc contribution           =    -529.44130169 Ry
     ewald contribution        =   -1933.00190254 Ry
     one-center paw contrib.   =   -1856.28578493 Ry

     convergence has been achieved in  16 iterations

     Forces acting on atoms (cartesian axes, Ry/au):

     atom    1 type  1   force =    -0.00101365    0.00182295    0.00311737
     atom    2 type  3   force =     0.00536274    0.00294942    0.00221189
     atom    3 type  1   force =    -0.01407779   -0.00129378   -0.00136968
     atom    4 type  3   force =     0.15022196    0.00306467   -0.00348351
     atom    5 type  2   force =    -0.00876222   -0.03620108    0.02053510
     atom    6 type  2   force =     0.00284150    0.01997163   -0.03010377
     atom    7 type  2   force =    -0.00318487   -0.01614086   -0.03378549
     atom    8 type  2   force =    -0.00136548   -0.05335957   -0.00174808
     atom    9 type  1   force =    -0.00054541    0.00164064   -0.00432253
     atom   10 type  1   force =    -0.01317256    0.00120546   -0.00127592
     atom   11 type  1   force =     0.01496702    0.00133618    0.00198158
     atom   12 type  1   force =    -0.01459760    0.00057784   -0.00412980
     atom   13 type  2   force =    -0.00360251    0.03724198   -0.02285151
     atom   14 type  2   force =    -0.00965772   -0.01583959    0.02782013
     atom   15 type  2   force =     0.00284638    0.00317395    0.04248858
     atom   16 type  2   force =    -0.00232221   -0.00236441    0.00002803
     atom   17 type  3   force =    -0.00709115   -0.00315579   -0.00052972
     atom   18 type  3   force =    -0.02413396   -0.00445943    0.00049369
     atom   19 type  1   force =    -0.00397365   -0.00026198    0.00004282
     atom   20 type  1   force =    -0.00882303   -0.00150699    0.00411433
     atom   21 type  2   force =    -0.00278196    0.03659475    0.04058698
     atom   22 type  2   force =    -0.00467251   -0.01145208    0.02224203
     atom   23 type  2   force =    -0.00395111    0.01555570    0.03266318
     atom   24 type  2   force =     0.00068393    0.05364700   -0.02974055
     atom   25 type  3   force =    -0.00056495   -0.00203157    0.00082602
     atom   26 type  1   force =     0.01535838   -0.00090964   -0.00128911
     atom   27 type  1   force =    -0.00075841    0.00038098    0.00204996
     atom   28 type  3   force =     0.17509848    0.00157820    0.00142393
     atom   29 type  2   force =     0.00149949   -0.03658747   -0.04102336
     atom   30 type  2   force =    -0.00205209    0.00708478   -0.02074783
     atom   31 type  2   force =    -0.00349575   -0.00249089   -0.03834975
     atom   32 type  2   force =    -0.00015110    0.00334903    0.03054005
     atom   33 type  1   force =     0.00053319    0.00084476   -0.00212238
     atom   34 type  3   force =    -0.00466281    0.00322735   -0.00430792
     atom   35 type  3   force =    -0.14813740   -0.00268176    0.00415082
     atom   36 type  1   force =     0.01237373    0.00116824    0.00380052
     atom   37 type  2   force =    -0.00046386    0.00401853    0.02615140
     atom   38 type  2   force =     0.01070073   -0.01589803   -0.02431884
     atom   39 type  2   force =     0.00807960   -0.01690725    0.02947962
     atom   40 type  2   force =    -0.00014005   -0.04159162   -0.00036356
     atom   41 type  3   force =    -0.00030370    0.00294620    0.00077952
     atom   42 type  1   force =     0.01333291    0.00108088   -0.00540847
     atom   43 type  3   force =     0.14446345   -0.00265667   -0.00212755
     atom   44 type  3   force =    -0.16219654    0.00183702    0.00550346
     atom   45 type  2   force =     0.01914918   -0.00007469   -0.01767969
     atom   46 type  2   force =    -0.01157531    0.01168477    0.02923830
     atom   47 type  2   force =     0.00212305    0.00260606   -0.03919514
     atom   48 type  2   force =    -0.00005152   -0.00297949   -0.00057636
     atom   49 type  3   force =     0.00516004   -0.00096231    0.00043211
     atom   50 type  3   force =     0.02497323   -0.00427248   -0.00194140
     atom   51 type  3   force =    -0.00177768    0.00002969   -0.00140955
     atom   52 type  1   force =     0.01112727   -0.00374923    0.00487525
     atom   53 type  2   force =     0.00166318   -0.00374480    0.04598429
     atom   54 type  2   force =     0.00944996    0.01655897    0.02072263
     atom   55 type  2   force =     0.00694462    0.01528004    0.02873830
     atom   56 type  2   force =    -0.00152836    0.04387977    0.02772069
     atom   57 type  1   force =    -0.00022734   -0.00129589    0.00027574
     atom   58 type  1   force =    -0.01460372   -0.00053333   -0.00600056
     atom   59 type  3   force =     0.00478122   -0.00328883    0.00080329
     atom   60 type  3   force =    -0.16607003    0.00276015    0.00493333
     atom   61 type  2   force =     0.00755605   -0.00039245   -0.03823861
     atom   62 type  2   force =    -0.00868829   -0.01227791   -0.02030773
     atom   63 type  2   force =     0.00443286   -0.00038343   -0.04242125
     atom   64 type  2   force =    -0.00054586    0.00264770   -0.02558534

     Total force =     0.447029     Total SCF correction =     0.001847


     Computing stress (Cartesian axis) and pressure

          total   stress  (Ry/bohr**3)                   (kbar)     P=      488.75
   0.01023090   0.00000129  -0.00000387         1505.02        0.19       -0.57
   0.00000129  -0.00014873  -0.00000389            0.19      -21.88       -0.57
  -0.00000387  -0.00000389  -0.00011482           -0.57       -0.57      -16.89


     BFGS Geometry Optimization
     Energy error            =      0.0E+00 Ry
     Gradient error          =      1.8E-01 Ry/Bohr
     Cell gradient error     =      1.5E+03 kbar

     number of scf cycles    =   1
     number of bfgs steps    =   0

     enthalpy           new  =   -4469.9796631509 Ry

     new trust radius        =       0.5000000000 bohr
     new conv_thr            =       0.0000010000 Ry

     new unit-cell volume =   4023.98095 a.u.^3 (   596.29246 Ang^3 )
     density =      4.58320 g/cm^3

CELL_PARAMETERS (angstrom)
   8.643842145   0.000042220  -0.000126250
   0.000042220   8.305146878  -0.000126833
  -0.000126250  -0.000126833   8.306253301

ATOMIC_POSITIONS (angstrom)
Al           -0.0000876392        0.0001514246        0.0002589871
Ti            2.1614241740        0.0002555569        0.0001521891
Al           -0.0012381106        2.0761475352        2.0764178449
Ti            2.1739270729        2.0765202103        2.0762104545
N             2.1601713894       -0.0030283354        2.0782378572
N             0.0002141473        0.0016273347        2.0740623023
N             2.1606957771        2.0749565269       -0.0028701140
N            -0.0001075184        2.0718542470       -0.0001768679
Al           -0.0001102724        0.0000728734        4.1527675373
Al            2.1597585710        0.0000472696        4.1529891009
Al            0.0012098491        2.0763025927        6.2298228751
Al            2.1596143642        2.0762501493        6.2292836226
N             2.1605544363        0.0030090760        6.2277598875
N            -0.0009296935       -0.0014109279        6.2320012790
N             2.1611539993        2.0764974594        4.1565932850
N            -0.0002533386        2.0760268952        4.1530972771
Ti           -0.0005919603        4.1523112913       -0.0001074125
Ti            2.1588951263        4.1522135474       -0.0000539274
Al           -0.0003434415        6.2288066861        2.0764717634
Al            2.1601978321        6.2287138133        2.0767784657
N             2.1607095320        4.1555920871        2.0798402327
N            -0.0004144504        4.1515903985        2.0783477771
N             2.1606505707        6.2301628516        0.0025869258
N             0.0000908551        6.2333165466       -0.0025660118
Ti           -0.0000908596        4.1523412629        4.1531318623
Al            2.1622463418        4.1524450235        4.1529245550
Al           -0.0001285937        6.2287966775        6.2297651606
Ti            2.1760357667        6.2289067590        6.2296813642
N             2.1610166347        4.1494496727        6.2261868577
N            -0.0002509626        4.1530668580        6.2279028419
N             2.1606268968        6.2286004306        4.1498139085
N            -0.0000445601        6.2290749006        4.1555687612
Al            4.3219671729        0.0000912860       -0.0002394524
Ti            6.4824784891        0.0002997583       -0.0004525841
Ti            4.3090927430        2.0760532850        2.0768135292
Al            6.4839303754        2.0763837200        2.0767526560
N             6.4828099115        0.0003337348        2.0786412680
N             4.3228146727       -0.0013311805        2.0744798198
N             6.4835906464        2.0749138987        0.0023227560
N             4.3219195024        2.0728528961       -0.0001249841
Ti            4.3218316915        0.0002024278        4.1531282841
Al            6.4839711967        0.0000580475        4.1525826142
Ti            4.3343266239        2.0759920845        6.2294182088
Ti            6.4687746616        2.0763757824        6.2300210049
N             6.4844424980       -0.0000696330        6.2281264516
N             4.3208256016        0.0008965741        6.2320559420
N             6.4830126388        2.0764714989        4.1497439519
N             4.3218640479        2.0759969138        4.1529839376
Ti            4.3223882961        4.1525146138       -0.0000906475
Ti            6.4850617961        4.1522502106       -0.0003194195
Ti            4.3217674861        6.2288520276        2.0762879734
Al            6.4838437192        6.2285486730        2.0767785351
N             6.4830148879        4.1522622650        2.0802255572
N             4.3227276035        4.1539383396        2.0781583683
N             6.4835136457        6.2301610727        0.0021977116
N             4.3218205861        6.2325262385        0.0021447068
Al            4.3218594016        4.1524234850        4.1530230196
Al            6.4815770270        4.1524973868        4.1524700445
Ti            4.3222714111        6.2285129478        6.2295984610
Ti            6.4684608883        6.2290259031        6.2299102260
N             6.4834613423        4.1524774311        6.2263550336
N             4.3210963635        4.1514795450        6.2278763132
N             6.4832334481        6.2287966121        4.1494125142
N             4.3218424533        6.2290378231        4.1508427911



     Writing config-only to output data dir ../output/TiAlN.save/
     NEW-OLD atomic charge density approx. for the potential
     extrapolated charge  415.04823, renormalised to  400.00000

     total cpu time spent up to now is      598.9 secs

     Self-consistent Calculation

     iteration #  1     ecut=   135.00 Ry     beta= 0.20
     Davidson diagonalization with overlap
     c_bands:  2 eigenvalues not converged
     c_bands:  1 eigenvalues not converged
     ethr =  1.00E-06,  avg # of iterations = 32.6

     total cpu time spent up to now is      737.6 secs

     total energy              =   -4465.57931937 Ry
     estimated scf accuracy    <      43.56394292 Ry

     iteration #  2     ecut=   135.00 Ry     beta= 0.20
     Davidson diagonalization with overlap
     ethr =  1.00E-02,  avg # of iterations =  2.1

     total cpu time spent up to now is      762.6 secs

     total energy              =   -4470.79578931 Ry
     estimated scf accuracy    <       2.49995431 Ry

     iteration #  3     ecut=   135.00 Ry     beta= 0.20
     Davidson diagonalization with overlap
     ethr =  6.25E-04,  avg # of iterations =  7.5

     total cpu time spent up to now is      801.0 secs

     total energy              =   -4471.55245306 Ry
     estimated scf accuracy    <       4.31563983 Ry

     iteration #  4     ecut=   135.00 Ry     beta= 0.20
     Davidson diagonalization with overlap
     ethr =  6.25E-04,  avg # of iterations =  1.0

     total cpu time spent up to now is      823.5 secs

     total energy              =   -4471.38874022 Ry
     estimated scf accuracy    <       2.64237149 Ry

     iteration #  5     ecut=   135.00 Ry     beta= 0.20
     Davidson diagonalization with overlap
     ethr =  6.25E-04,  avg # of iterations =  1.0

     total cpu time spent up to now is      846.8 secs

     total energy              =   -4471.40195742 Ry
     estimated scf accuracy    <       0.71661944 Ry

     iteration #  6     ecut=   135.00 Ry     beta= 0.20
     Davidson diagonalization with overlap
     ethr =  1.79E-04,  avg # of iterations =  1.4

     total cpu time spent up to now is      870.1 secs

     total energy              =   -4471.39423681 Ry
     estimated scf accuracy    <       0.34903269 Ry

     iteration #  7     ecut=   135.00 Ry     beta= 0.20
     Davidson diagonalization with overlap
     ethr =  8.73E-05,  avg # of iterations =  2.0

     total cpu time spent up to now is      894.3 secs

     total energy              =   -4471.39751977 Ry
     estimated scf accuracy    <       0.16343853 Ry

     iteration #  8     ecut=   135.00 Ry     beta= 0.20
     Davidson diagonalization with overlap
     ethr =  4.09E-05,  avg # of iterations =  4.4

     total cpu time spent up to now is      921.4 secs

     total energy              =   -4471.38800610 Ry
     estimated scf accuracy    <       0.14890756 Ry

     iteration #  9     ecut=   135.00 Ry     beta= 0.20
     Davidson diagonalization with overlap
     ethr =  3.72E-05,  avg # of iterations =  1.9

     total cpu time spent up to now is      945.7 secs

     total energy              =   -4471.38668984 Ry
     estimated scf accuracy    <       0.05004674 Ry

     iteration # 10     ecut=   135.00 Ry     beta= 0.20
     Davidson diagonalization with overlap
     c_bands:  2 eigenvalues not converged
     c_bands:  1 eigenvalues not converged
     ethr =  1.25E-05,  avg # of iterations = 15.5

     total cpu time spent up to now is      981.1 secs

     total energy              =   -4471.38993596 Ry
     estimated scf accuracy    <       0.00412638 Ry

     iteration # 11     ecut=   135.00 Ry     beta= 0.20
     Davidson diagonalization with overlap
     ethr =  1.03E-06,  avg # of iterations = 10.2

     total cpu time spent up to now is     1020.7 secs

     total energy              =   -4471.39056059 Ry
     estimated scf accuracy    <       0.00140476 Ry

     iteration # 12     ecut=   135.00 Ry     beta= 0.20
     Davidson diagonalization with overlap
     ethr =  3.51E-07,  avg # of iterations =  3.9

     total cpu time spent up to now is     1046.5 secs

     total energy              =   -4471.39059649 Ry
     estimated scf accuracy    <       0.00041429 Ry

     iteration # 13     ecut=   135.00 Ry     beta= 0.20
     Davidson diagonalization with overlap
     ethr =  1.04E-07,  avg # of iterations =  2.6

     total cpu time spent up to now is     1072.0 secs

     total energy              =   -4471.39060183 Ry
     estimated scf accuracy    <       0.00011397 Ry

     iteration # 14     ecut=   135.00 Ry     beta= 0.20
     Davidson diagonalization with overlap
     ethr =  2.85E-08,  avg # of iterations =  5.6

     total cpu time spent up to now is     1099.8 secs

     total energy              =   -4471.39061114 Ry
     estimated scf accuracy    <       0.00003510 Ry

     iteration # 15     ecut=   135.00 Ry     beta= 0.20
     Davidson diagonalization with overlap
     ethr =  8.77E-09,  avg # of iterations =  5.4

     total cpu time spent up to now is     1127.5 secs

     total energy              =   -4471.39061352 Ry
     estimated scf accuracy    <       0.00001579 Ry

     iteration # 16     ecut=   135.00 Ry     beta= 0.20
     Davidson diagonalization with overlap
     ethr =  3.95E-09,  avg # of iterations =  3.0

     total cpu time spent up to now is     1153.2 secs

     total energy              =   -4471.39061368 Ry
     estimated scf accuracy    <       0.00000744 Ry

     iteration # 17     ecut=   135.00 Ry     beta= 0.20
     Davidson diagonalization with overlap
     ethr =  1.86E-09,  avg # of iterations =  5.5

     total cpu time spent up to now is     1180.7 secs

     total energy              =   -4471.39061424 Ry
     estimated scf accuracy    <       0.00000111 Ry

     iteration # 18     ecut=   135.00 Ry     beta= 0.20
     Davidson diagonalization with overlap
     ethr =  2.77E-10,  avg # of iterations =  6.0

     total cpu time spent up to now is     1211.5 secs

     End of self-consistent calculation

          k = 0.0000 0.0000 0.0000 (102399 PWs)   bands (ev):

   -43.0206 -42.8869 -42.8591 -42.8449 -42.8397 -42.8322 -42.8140 -42.8006
   -42.7616 -42.6501 -42.4891 -42.4741 -42.3803 -42.3572 -42.1427 -42.0483
   -20.6972 -20.3309 -20.1337 -20.0912 -19.5373 -19.4324 -19.4089 -19.3955
   -19.3929 -19.3799 -19.3685 -19.3371 -19.3235 -19.3035 -19.2898 -19.2738
   -19.2670 -19.2424 -19.2200 -19.1942 -19.1817 -19.1688 -19.1556 -19.1497
   -19.1107 -19.1055 -19.0734 -19.0445 -19.0235 -18.9960 -18.9756 -18.9690
   -18.9537 -18.9421 -18.8721 -18.8549 -18.8346 -18.8209 -18.7855 -18.7710
   -18.6663 -18.6403 -18.5826 -18.5251 -18.1787 -18.1401 -17.6247 -17.0355
    -3.8231  -2.7548  -2.7324  -2.6367  -2.6285  -2.3672  -2.3065  -2.2031
    -2.1825  -2.0283  -1.5102  -1.3950  -1.3680  -1.3298  -1.3179  -1.3006
    -1.2611  -1.1511  -0.8993  -0.8834  -0.8205  -0.7679  -0.7507  -0.7438
     0.0540   0.8757   0.8979   0.9683   1.0397   1.2966   1.3665   1.3737
     4.3081   4.5768   5.9107   5.9477   5.9722   6.3448   6.4122   6.4787
     6.6280   6.6445   6.6718   6.7697   6.8296   6.8948   6.9416   7.0249
     7.0585   7.1798   7.3344   7.5451   7.7611   7.8223   7.8398   7.9044
     7.9994   8.0813   8.1422   8.2175   8.2717   8.3030   8.4172   8.4317
     8.4606   8.5081   8.5508   8.7076   8.8853   8.8968   9.0796   9.1013
     9.2349   9.2395   9.2994   9.3064   9.3638   9.4457   9.5375   9.6066
     9.7542   9.7986  10.2053  10.2187  10.2802  10.3562  10.3979  10.4406
    10.4551  10.4881  10.5467  10.5819  10.5941  10.6450  10.9539  11.1089
    11.1243  11.1552  11.1667  11.2152  11.2519  11.2703  11.2846  11.3033
    11.3082  11.3518  11.4029  11.4266  11.4529  11.5318  11.5561  11.5886
    11.6705  11.6928  11.7162  11.8049  11.8144  11.9414  12.1919  12.4299
    12.5522  12.5728  12.5860  12.5906  12.6783  12.7488  12.7922  12.8065
    12.9066  13.0121  13.1829  13.2831  13.3005  13.3795  13.4631  13.4901
    13.6671  13.6874  13.8214  13.8949  14.1391  14.1924  14.3331  14.4254
    14.5290  14.6161  14.6472  14.6890  14.7314  14.8952  14.9338  15.0605
    15.0917  15.1248  15.1964  15.2013  15.3287  15.3786  15.4499  15.5429
    15.5675  15.5923  15.6727  15.7344  15.8267  15.8507  15.9360  15.9982
    16.0485  16.0727  16.1144  16.1712  16.1998  16.2352  16.2384  16.2816

          k =-0.0000-0.0000-0.5002 (102546 PWs)   bands (ev):

   -43.0206 -42.8863 -42.8604 -42.8452 -42.8403 -42.8297 -42.8148 -42.8007
   -42.7616 -42.6501 -42.4891 -42.4741 -42.3803 -42.3572 -42.1427 -42.0483
   -20.6972 -20.3309 -20.1337 -20.0912 -19.5373 -19.4322 -19.4066 -19.3937
   -19.3693 -19.3574 -19.3496 -19.3417 -19.3312 -19.3231 -19.3025 -19.3000
   -19.2836 -19.2580 -19.2524 -19.1942 -19.1773 -19.1511 -19.1284 -19.1129
   -19.1037 -19.0959 -19.0907 -19.0568 -19.0385 -18.9965 -18.9755 -18.9687
   -18.9567 -18.9264 -18.8750 -18.8522 -18.8334 -18.8221 -18.7898 -18.7706
   -18.6616 -18.6398 -18.5837 -18.5302 -18.1787 -18.1401 -17.6247 -17.0355
    -3.5335  -3.3857  -2.5966  -2.5158  -2.4306  -2.3202  -2.2436  -2.1432
    -2.0373  -1.9855  -1.9512  -1.8884  -1.4335  -1.2784  -1.1725  -1.1492
    -1.0780  -1.0574  -1.0051  -0.9676  -0.8686  -0.8424  -0.7775  -0.5998
     0.3322   0.3675   1.0161   1.0803   1.1883   1.1966   1.2357   1.4096
     4.9357   5.0110   5.3296   5.8922   6.1300   6.1415   6.4599   6.5542
     6.6265   6.6297   6.6879   6.7743   6.8099   6.9949   7.0198   7.0677
     7.1302   7.2530   7.3241   7.4083   7.6317   7.6835   7.6993   7.7329
     7.7703   7.8408   7.9366   7.9501   8.0644   8.3238   8.4881   8.5148
     8.5761   8.6465   8.8045   8.9349   9.0134   9.0643   9.0741   9.1818
     9.2533   9.3158   9.4216   9.4519   9.4857   9.6060   9.6364   9.6795
     9.7462   9.9105   9.9677  10.0600  10.0884  10.1862  10.2033  10.2347
    10.3343  10.3933  10.4051  10.4394  10.6032  10.6671  10.8176  10.9044
    10.9463  10.9783  11.0172  11.0697  11.1111  11.1464  11.1853  11.2871
    11.3015  11.3247  11.3619  11.4022  11.4838  11.5832  11.6441  11.6805
    11.8377  11.8536  11.9342  11.9749  12.0309  12.0862  12.1757  12.2008
    12.2222  12.3487  12.4293  12.5665  12.6047  12.7214  12.9911  13.0628
    13.1127  13.1281  13.1600  13.3067  13.5034  13.5630  13.6974  13.8008
    13.9284  13.9813  14.0442  14.1529  14.2740  14.3636  14.4679  14.5398
    14.5936  14.6480  14.6896  14.7332  14.8000  14.8038  14.9094  14.9813
    15.1006  15.1448  15.1774  15.2246  15.2551  15.3081  15.3546  15.3975
    15.4710  15.5064  15.5823  15.6174  15.7967  15.8121  15.8702  15.9330
    16.0136  16.0575  16.0643  16.1251  16.1578  16.1957  16.2099  16.2521

          k =-0.0000-0.5003-0.5002 (102596 PWs)   bands (ev):

   -43.0206 -42.8859 -42.8609 -42.8466 -42.8395 -42.8286 -42.8151 -42.8008
   -42.7616 -42.6501 -42.4891 -42.4741 -42.3803 -42.3572 -42.1427 -42.0483
   -20.6972 -20.3309 -20.1337 -20.0912 -19.5373 -19.4323 -19.4068 -19.3943
   -19.3827 -19.3729 -19.3681 -19.3407 -19.3235 -19.3037 -19.2929 -19.2709
   -19.2667 -19.2573 -19.2377 -19.1943 -19.1783 -19.1650 -19.1625 -19.1347
   -19.1177 -19.0940 -19.0668 -19.0553 -19.0245 -18.9952 -18.9757 -18.9690
   -18.9540 -18.9429 -18.8711 -18.8525 -18.8352 -18.8225 -18.7850 -18.7717
   -18.6663 -18.6403 -18.5829 -18.5251 -18.1787 -18.1401 -17.6247 -17.0355
    -3.2571  -3.1743  -3.1141  -2.9704  -2.2620  -2.1462  -2.1048  -2.0052
    -1.8921  -1.8757  -1.7589  -1.7398  -1.6438  -1.6222  -1.6056  -1.5697
    -0.9744  -0.9685  -0.9152  -0.9014  -0.7376  -0.7217  -0.7098  -0.6496
     0.5607   0.6135   0.6198   0.7145   1.1734   1.3042   1.3440   1.4449
     5.0332   5.2734   5.4739   5.7839   6.1677   6.2701   6.3105   6.4262
     6.5450   6.5952   6.6610   6.7602   6.7825   7.0862   7.1447   7.3131
     7.3547   7.3823   7.4095   7.4478   7.4885   7.5197   7.6481   7.7259
     7.8009   7.9153   7.9499   8.0163   8.1325   8.2280   8.2596   8.3495
     8.4763   8.5494   8.7004   8.7818   8.8953   8.9191   8.9595   9.1031
     9.1956   9.2354   9.3769   9.4030   9.5076   9.5988   9.6581   9.6964
     9.8362   9.9042   9.9572  10.0241  10.1426  10.2411  10.3420  10.4063
    10.4250  10.5129  10.5359  10.5940  10.6260  10.6619  10.7057  10.7914
    10.8362  10.8943  10.9220  10.9590  11.0923  11.1155  11.1474  11.1743
    11.2436  11.3442  11.3605  11.5607  11.8134  11.8366  11.8511  11.8706
    11.8818  11.9401  11.9748  12.0050  12.0178  12.0315  12.0728  12.2186
    12.2840  12.3435  12.3637  12.5066  12.5469  12.7272  12.9574  13.0348
    13.1037  13.1356  13.2617  13.3439  13.4761  13.5024  13.7313  13.8256
    13.9578  14.0004  14.0750  14.0864  14.1615  14.2462  14.2611  14.3520
    14.4325  14.5705  14.6543  14.7538  14.8005  14.8880  14.8994  14.9564
    14.9726  15.0205  15.0677  15.1105  15.2116  15.2291  15.2877  15.4038
    15.4399  15.5201  15.5412  15.6486  15.7303  15.7567  15.8026  15.8361
    15.8377  15.9210  15.9321  16.0718  16.1060  16.1479  16.1875  16.2961

          k =-0.4807-0.5003-0.5002 (102712 PWs)   bands (ev):

   -43.0206 -42.8609 -42.8466 -42.8439 -42.8324 -42.8177 -42.8007 -42.7817
   -42.7601 -42.7462 -42.6498 -42.3812 -42.3581 -42.2032 -42.1583 -42.1399
   -20.3395 -20.2295 -20.1863 -20.1315 -20.0900 -19.5374 -19.4321 -19.4062
   -19.3941 -19.3799 -19.3671 -19.3626 -19.3408 -19.3291 -19.3037 -19.2922
   -19.2704 -19.2645 -19.2419 -19.2156 -19.1870 -19.1809 -19.1803 -19.1664
   -19.1426 -19.1256 -19.0991 -19.0874 -19.0663 -19.0038 -18.9890 -18.9849
   -18.9758 -18.8731 -18.8538 -18.8320 -18.8214 -18.7243 -18.6940 -18.6651
   -18.6511 -18.6282 -18.5453 -18.1790 -18.1404 -17.6695 -17.6307 -17.5947
    -3.0499  -2.9335  -2.8989  -2.7585  -2.6841  -2.6747  -2.5183  -2.4731
    -1.9797  -1.9061  -1.8848  -1.8207  -1.7556  -1.7198  -1.6672  -1.5191
    -0.4586  -0.4347  -0.3932  -0.2573  -0.2472  -0.1851  -0.1419  -0.0825
     0.3096   0.3673   0.3977   0.4698   0.5209   0.5690   0.6031   0.7242
     5.1458   5.4601   5.5485   5.7387   5.9615   6.0531   6.4631   6.5792
     6.7323   6.7793   7.0131   7.1643   7.3792   7.5891   7.6966   7.7294
     7.7838   7.8586   7.8789   7.9241   7.9540   7.9687   8.0092   8.0450
     8.0829   8.1114   8.1528   8.2128   8.2372   8.3191   8.3919   8.4453
     8.4694   8.5204   8.5284   8.5867   8.6658   8.6926   8.7113   8.7831
     8.8244   8.8613   8.8793   8.9277   8.9815   9.0689   9.2017   9.2791
     9.3021   9.4304   9.4743   9.6083   9.7073   9.7968   9.8442   9.8938
     9.9502  10.0278  10.0622  10.1337  10.1790  10.1970  10.2284  10.2831
    10.4298  10.4598  10.4935  10.5756  10.5961  10.6799  10.8089  11.1385
    11.2724  11.3989  11.6311  11.6406  11.7904  11.8602  11.9184  12.0205
    12.0557  12.1335  12.2515  12.2866  12.4546  12.4599  12.5642  12.8203
    12.8339  12.9763  13.2777  13.3592  13.3880  13.4331  13.5585  13.6163
    13.7168  13.7982  13.8608  13.8651  13.9393  13.9700  14.0021  14.0848
    14.1483  14.1632  14.2158  14.2987  14.3195  14.4027  14.4598  14.5139
    14.5469  14.5621  14.5967  14.6385  14.6752  14.7178  14.7772  14.7852
    14.8602  14.8741  14.9047  14.9209  14.9841  15.0392  15.0797  15.1039
    15.1728  15.2490  15.2764  15.3485  15.4219  15.4522  15.4915  15.5440
    15.6105  15.6231  15.6808  15.7355  15.7780  15.8413  15.9561  16.0057

          k =-0.4807 0.0000-0.0000 (102546 PWs)   bands (ev):

   -43.0206 -42.8628 -42.8454 -42.8418 -42.8326 -42.8186 -42.8014 -42.7818
   -42.7598 -42.7462 -42.6498 -42.3812 -42.3581 -42.2032 -42.1583 -42.1399
   -20.3395 -20.2294 -20.1863 -20.1315 -20.0901 -19.5374 -19.4321 -19.4070
   -19.3949 -19.3897 -19.3761 -19.3629 -19.3374 -19.3290 -19.3042 -19.2902
   -19.2723 -19.2662 -19.2246 -19.2000 -19.1835 -19.1802 -19.1760 -19.1591
   -19.1501 -19.1393 -19.1077 -19.0931 -19.0636 -19.0026 -18.9899 -18.9849
   -18.9731 -18.8720 -18.8530 -18.8325 -18.8220 -18.7244 -18.6942 -18.6650
   -18.6514 -18.6275 -18.5453 -18.1790 -18.1404 -17.6695 -17.6307 -17.5947
    -3.5626  -3.2974  -2.5056  -2.4811  -2.4440  -2.3874  -2.3014  -2.2543
    -2.1671  -2.0642  -1.9991  -1.9299  -1.7526  -1.6809  -1.6777  -1.6212
    -0.9335  -0.7756  -0.0962  -0.0426  -0.0216   0.0297   0.0626   0.1315
     0.1655   0.3032   0.3551   0.4000   0.4819   0.6022   0.6059   0.6138
     4.3962   4.9532   4.9943   5.5925   6.3884   6.5660   6.7707   6.8371
     6.8736   6.9937   7.1613   7.1769   7.3095   7.4703   7.5671   7.6387
     7.7822   7.8111   7.8219   7.8786   8.0027   8.0153   8.0430   8.0563
     8.1241   8.2124   8.2159   8.2505   8.2720   8.3374   8.3556   8.4049
     8.4246   8.4390   8.4824   8.4978   8.5059   8.5851   8.6358   8.6527
     8.8099   8.9416   9.0201   9.1503   9.1713   9.2096   9.2428   9.2585
     9.3691   9.4660   9.4960   9.6985   9.7209   9.7354   9.8068   9.8447
     9.9479   9.9963  10.0991  10.1129  10.1266  10.2094  10.2313  10.2716
    10.3270  10.4878  10.7454  10.8628  10.9216  10.9678  11.0129  11.0377
    11.1092  11.1867  11.3156  11.6722  11.7418  11.8152  12.1251  12.1424
    12.2037  12.3721  12.4228  12.4532  12.4944  12.5368  12.5998  12.7017
    12.8488  12.9704  12.9715  13.0374  13.0702  13.2219  13.3740  13.5207
    13.5691  13.5937  13.6425  13.7100  13.7375  13.8762  13.9102  14.0269
    14.0910  14.1223  14.1342  14.2154  14.3017  14.3682  14.4355  14.4658
    14.5010  14.6014  14.6093  14.6521  14.6745  14.6887  14.7238  14.7357
    14.7705  14.8090  14.9320  14.9409  14.9970  15.2910  15.3205  15.3553
    15.3713  15.4068  15.4597  15.4623  15.4730  15.4885  15.5605  15.6302
    15.6455  15.6850  15.6988  15.7718  15.8343  15.9104  15.9490  16.0722

          k = 0.0000-0.5003-0.0000 (102546 PWs)   bands (ev):

   -43.0206 -42.8859 -42.8615 -42.8445 -42.8402 -42.8297 -42.8147 -42.8008
   -42.7616 -42.6501 -42.4891 -42.4741 -42.3803 -42.3572 -42.1427 -42.0483
   -20.6972 -20.3309 -20.1337 -20.0912 -19.5373 -19.4322 -19.4075 -19.3934
   -19.3689 -19.3633 -19.3452 -19.3349 -19.3236 -19.3179 -19.3033 -19.2983
   -19.2858 -19.2679 -19.2606 -19.1941 -19.1764 -19.1563 -19.1392 -19.1057
   -19.1004 -19.0948 -19.0813 -19.0618 -19.0375 -18.9960 -18.9756 -18.9689
   -18.9570 -18.9268 -18.8739 -18.8542 -18.8330 -18.8216 -18.7901 -18.7703
   -18.6615 -18.6396 -18.5840 -18.5300 -18.1787 -18.1401 -17.6247 -17.0355
    -3.5136  -3.4191  -2.5691  -2.4770  -2.4361  -2.3692  -2.1640  -2.1156
    -2.0610  -2.0511  -1.9965  -1.9387  -1.2524  -1.2019  -1.1681  -1.1351
    -1.0867  -1.0709  -1.0637  -0.9442  -0.8426  -0.8276  -0.8129  -0.7554
     0.3251   0.3864   1.0571   1.1084   1.1444   1.2061   1.2622   1.3272
     5.0187   5.1495   5.2236   5.3734   6.2590   6.3355   6.3781   6.5184
     6.5891   6.6960   6.7379   6.7808   6.7930   6.8675   6.8949   6.9380
     7.0390   7.1839   7.3170   7.3939   7.4551   7.5193   7.7819   7.7825
     7.7988   7.8346   8.2340   8.3154   8.3602   8.4721   8.4929   8.5190
     8.5568   8.6527   8.8319   8.9416   9.0613   9.0755   9.1881   9.2056
     9.2933   9.3369   9.4659   9.5721   9.6262   9.7814   9.7892   9.8787
     9.9055   9.9345   9.9953  10.0263  10.1533  10.1702  10.2196  10.2732
    10.3418  10.3600  10.4046  10.4458  10.4971  10.5683  10.5913  10.7148
    10.7794  10.8278  10.9514  11.0556  11.1745  11.2682  11.2742  11.3004
    11.3329  11.3501  11.4032  11.4247  11.4393  11.4545  11.5287  11.5496
    11.6790  11.7888  11.8487  11.9947  12.0451  12.1234  12.1465  12.1905
    12.2281  12.4284  12.4539  12.4782  12.6786  12.8110  12.9290  12.9697
    13.0644  13.1873  13.2072  13.2732  13.3692  13.5350  13.6290  13.7354
    13.8061  13.9063  13.9407  14.0928  14.1927  14.2294  14.3691  14.4105
    14.4920  14.5380  14.5754  14.6556  14.7156  14.7825  14.8972  15.0131
    15.0501  15.0786  15.1183  15.1956  15.2186  15.2962  15.3215  15.4317
    15.4707  15.4881  15.5169  15.5763  15.6359  15.8090  15.8302  15.8770
    15.9274  15.9594  16.0136  16.0776  16.1709  16.2279  16.2579  16.2796

          k =-0.4807 0.0000 0.5002 (102596 PWs)   bands (ev):

   -43.0206 -42.8612 -42.8481 -42.8423 -42.8312 -42.8183 -42.8013 -42.7816
   -42.7599 -42.7463 -42.6498 -42.3812 -42.3581 -42.2032 -42.1583 -42.1399
   -20.3395 -20.2294 -20.1863 -20.1315 -20.0900 -19.5375 -19.4320 -19.4060
   -19.3937 -19.3636 -19.3575 -19.3471 -19.3416 -19.3281 -19.3167 -19.3028
   -19.2912 -19.2833 -19.2525 -19.2472 -19.1810 -19.1793 -19.1623 -19.1506
   -19.1294 -19.1195 -19.1057 -19.0680 -19.0587 -19.0016 -18.9943 -18.9877
   -18.9844 -18.8701 -18.8637 -18.8330 -18.8220 -18.7082 -18.6957 -18.6653
   -18.6521 -18.6289 -18.5519 -18.1790 -18.1404 -17.6695 -17.6307 -17.5947
    -3.2879  -3.1604  -3.0040  -2.8367  -2.3532  -2.2906  -2.2281  -2.1650
    -2.1016  -2.0261  -1.9100  -1.9005  -1.8508  -1.8197  -1.6627  -1.6140
    -0.6948  -0.5993  -0.5026  -0.4159   0.0423   0.0806   0.1580   0.2209
     0.2783   0.3016   0.3754   0.3986   0.4466   0.4792   0.6095   0.6515
     5.0236   5.3562   5.3963   5.4062   6.1102   6.2124   6.3219   6.6349
     6.8460   6.9093   6.9997   7.1485   7.1841   7.2676   7.5299   7.6136
     7.7439   7.8876   7.9373   7.9725   8.0137   8.0728   8.0854   8.1316
     8.1882   8.2748   8.2952   8.3065   8.3366   8.3638   8.4536   8.4627
     8.5034   8.5583   8.5741   8.6242   8.6661   8.7048   8.7881   8.8197
     8.8506   8.8649   9.0379   9.1013   9.1327   9.1623   9.1835   9.2011
     9.2737   9.3573   9.4551   9.5642   9.5917   9.6325   9.6919   9.7142
     9.7250   9.8331   9.8754   9.8994   9.9650  10.1409  10.2671  10.4862
    10.5580  10.5790  10.7068  10.7494  10.7952  10.9168  11.0453  11.1693
    11.1956  11.2424  11.4725  11.5382  11.5868  11.5940  11.7350  11.9243
    11.9328  12.2199  12.3651  12.4841  12.6131  12.6280  12.7423  12.8350
    12.8719  12.9911  13.1030  13.2819  13.4785  13.4893  13.5745  13.5924
    13.6473  13.7022  13.7500  13.7821  13.8748  13.9672  14.0119  14.0954
    14.1288  14.2103  14.2245  14.2670  14.3384  14.3739  14.4489  14.4740
    14.5171  14.5391  14.6140  14.6715  14.6893  14.7401  14.8072  14.8469
    14.8922  14.9078  14.9438  15.0024  15.0372  15.0559  15.1628  15.1832
    15.3085  15.3471  15.3833  15.4498  15.5058  15.5089  15.5961  15.6297
    15.6447  15.6589  15.7127  15.7465  15.7830  15.8993  15.9271  16.0255

          k =-0.4807 0.5003 0.0000 (102596 PWs)   bands (ev):

   -43.0206 -42.8615 -42.8462 -42.8415 -42.8353 -42.8170 -42.8007 -42.7818
   -42.7600 -42.7462 -42.6498 -42.3812 -42.3581 -42.2032 -42.1583 -42.1399
   -20.3395 -20.2295 -20.1863 -20.1315 -20.0901 -19.5374 -19.4320 -19.4067
   -19.3934 -19.3641 -19.3624 -19.3450 -19.3345 -19.3291 -19.3030 -19.2969
   -19.2903 -19.2776 -19.2678 -19.2606 -19.1811 -19.1784 -19.1738 -19.1609
   -19.1273 -19.1063 -19.0996 -19.0697 -19.0534 -19.0052 -18.9930 -18.9906
   -18.9835 -18.8679 -18.8647 -18.8338 -18.8226 -18.7079 -18.6957 -18.6652
   -18.6521 -18.6289 -18.5519 -18.1790 -18.1404 -17.6695 -17.6307 -17.5947
    -3.2897  -3.1450  -2.9578  -2.9386  -2.3733  -2.2907  -2.2188  -2.0697
    -2.0105  -1.9894  -1.9599  -1.9485  -1.8617  -1.7408  -1.7200  -1.6842
    -0.6678  -0.6249  -0.4893  -0.4276   0.0558   0.0874   0.1598   0.2736
     0.2946   0.3361   0.3615   0.3715   0.4110   0.5184   0.5597   0.5770
     5.1056   5.2621   5.4332   5.5408   5.8207   5.9545   6.2607   6.3296
     6.8130   6.9039   6.9704   7.0433   7.4214   7.5518   7.5756   7.8321
     7.8667   7.9115   7.9270   7.9435   7.9678   8.0589   8.1198   8.1687
     8.2207   8.2353   8.2546   8.2815   8.3105   8.3306   8.3568   8.4279
     8.4902   8.6098   8.6480   8.6675   8.7310   8.7820   8.8000   8.9628
     9.0537   9.0838   9.1773   9.2020   9.2148   9.2442   9.2927   9.3116
     9.3231   9.3769   9.4098   9.4615   9.5779   9.6274   9.6788   9.7471
     9.7629   9.8199   9.8592   9.9932  10.0031  10.2084  10.2241  10.2899
    10.4718  10.6414  10.6537  10.7991  10.8843  10.9210  10.9856  11.0786
    11.1120  11.1934  11.2640  11.4442  11.5796  11.6234  11.6542  11.7703
    11.8531  12.1565  12.2175  12.4593  12.5394  12.5750  12.5876  12.8180
    12.8248  12.9842  13.1532  13.3034  13.3644  13.4468  13.5732  13.6660
    13.6836  13.7742  13.8491  13.9174  13.9939  14.0040  14.0307  14.0355
    14.0951  14.1848  14.2434  14.2760  14.3429  14.3919  14.4090  14.4222
    14.4851  14.5218  14.5383  14.6092  14.6150  14.6412  14.6751  14.8036
    14.8195  14.8476  14.8542  14.9259  14.9985  15.1213  15.1597  15.1669
    15.2545  15.3063  15.3559  15.4034  15.4514  15.4979  15.5252  15.6058
    15.6279  15.6340  15.6731  15.6795  15.7226  15.7854  15.8292  15.8876

     the Fermi energy is    13.9741 ev

!    total energy              =   -4471.39061427 Ry
     total all-electron energy =    -38594.003200 Ry
     estimated scf accuracy    <       0.00000041 Ry
     smearing contrib. (-TS)   =      -0.00513644 Ry
     internal energy E=F+TS    =   -4471.38547783 Ry

     The total energy is F=E-TS. E is the sum of the following terms:
     one-electron contribution =    -877.34797610 Ry
     hartree contribution      =     696.50481083 Ry
     xc contribution           =    -527.52834531 Ry
     ewald contribution        =   -1906.91230113 Ry
     one-center paw contrib.   =   -1856.10166610 Ry

     convergence has been achieved in  18 iterations

     Forces acting on atoms (cartesian axes, Ry/au):

     atom    1 type  1   force =    -0.00102262    0.00044623    0.00301904
     atom    2 type  3   force =     0.00234304    0.00140101    0.00137916
     atom    3 type  1   force =    -0.01303908   -0.00303923   -0.00042462
     atom    4 type  3   force =     0.09959174    0.00115552   -0.00434764
     atom    5 type  2   force =    -0.01036906   -0.02656740    0.01504127
     atom    6 type  2   force =     0.00153368    0.01368470   -0.02342585
     atom    7 type  2   force =    -0.00489752   -0.01282445   -0.02721418
     atom    8 type  2   force =    -0.00002059   -0.04319333   -0.00148749
     atom    9 type  1   force =    -0.00018086    0.00001597   -0.00337741
     atom   10 type  1   force =    -0.01241224   -0.00094966   -0.00117953
     atom   11 type  1   force =     0.01306390   -0.00128714    0.00020355
     atom   12 type  1   force =    -0.01320849   -0.00256332   -0.00534043
     atom   13 type  2   force =    -0.00834184    0.02962034   -0.01729776
     atom   14 type  2   force =    -0.00939314   -0.00924321    0.01993137
     atom   15 type  2   force =     0.00217375    0.00408959    0.03670816
     atom   16 type  2   force =    -0.00187352   -0.00575074    0.00051244
     atom   17 type  3   force =    -0.00847247   -0.00188098    0.00024943
     atom   18 type  3   force =    -0.01362613   -0.00287063   -0.00047302
     atom   19 type  1   force =    -0.00395716    0.00178495    0.00111631
     atom   20 type  1   force =    -0.00801816    0.00171441    0.00593895
     atom   21 type  2   force =    -0.00469475    0.02619911    0.03112891
     atom   22 type  2   force =    -0.00470394   -0.00649019    0.01776704
     atom   23 type  2   force =    -0.00319042    0.01309472    0.02657176
     atom   24 type  2   force =     0.00082972    0.04150422   -0.01926192
     atom   25 type  3   force =     0.00091514   -0.00026154    0.00058595
     atom   26 type  1   force =     0.01358757    0.00081036   -0.00128645
     atom   27 type  1   force =    -0.00055577    0.00371398   -0.00054247
     atom   28 type  3   force =     0.11746070    0.00657784    0.00186768
     atom   29 type  2   force =    -0.00079646   -0.03098174   -0.03143190
     atom   30 type  2   force =    -0.00284841    0.00126752   -0.01598172
     atom   31 type  2   force =    -0.00250750   -0.00174487   -0.03089060
     atom   32 type  2   force =     0.00029058    0.00701161    0.02105318
     atom   33 type  1   force =     0.00087902   -0.00071918   -0.00144388
     atom   34 type  3   force =    -0.00192095    0.00157339   -0.00312316
     atom   35 type  3   force =    -0.10082866   -0.00551561    0.00375145
     atom   36 type  1   force =     0.01146294   -0.00136238    0.00453170
     atom   37 type  2   force =     0.00184847    0.00484234    0.01981506
     atom   38 type  2   force =     0.01011446   -0.01200954   -0.01584242
     atom   39 type  2   force =     0.00869797   -0.01556370    0.02437891
     atom   40 type  2   force =    -0.00084191   -0.03161762    0.00153522
     atom   41 type  3   force =    -0.00023725   -0.00092370    0.00184850
     atom   42 type  1   force =     0.01240493   -0.00080523   -0.00596768
     atom   43 type  3   force =     0.09938008   -0.00640627   -0.00331279
     atom   44 type  3   force =    -0.10710702   -0.00309574    0.00586017
     atom   45 type  2   force =     0.02215719    0.00169727   -0.01224479
     atom   46 type  2   force =    -0.01109804    0.01019994    0.01859488
     atom   47 type  2   force =     0.00160473    0.00261427   -0.03283800
     atom   48 type  2   force =    -0.00059201    0.00287336   -0.00232993
     atom   49 type  3   force =     0.00652614    0.00014683    0.00087969
     atom   50 type  3   force =     0.01476530   -0.00286578   -0.00235558
     atom   51 type  3   force =     0.00044277    0.00273239    0.00046895
     atom   52 type  1   force =     0.01084529   -0.00064467    0.00647189
     atom   53 type  2   force =     0.00202887   -0.00514176    0.03685280
     atom   54 type  2   force =     0.01019444    0.01146108    0.02168867
     atom   55 type  2   force =     0.00678453    0.01585852    0.02197789
     atom   56 type  2   force =    -0.00185859    0.03439072    0.02285649
     atom   57 type  1   force =    -0.00092496    0.00077522   -0.00019248
     atom   58 type  1   force =    -0.01301616    0.00084115   -0.00673625
     atom   59 type  3   force =     0.00120058    0.00059743   -0.00189579
     atom   60 type  3   force =    -0.11098415    0.00830633    0.00715490
     atom   61 type  2   force =     0.00766560   -0.00281413   -0.02925826
     atom   62 type  2   force =    -0.00711917   -0.01068494   -0.02305416
     atom   63 type  2   force =     0.00451568   -0.00032206   -0.03432412
     atom   64 type  2   force =    -0.00064980   -0.00286156   -0.02285912

     Total force =     0.315977     Total SCF correction =     0.001964


     Computing stress (Cartesian axis) and pressure

          total   stress  (Ry/bohr**3)                   (kbar)     P=      352.14
   0.00771157  -0.00000305  -0.00000553         1134.41       -0.45       -0.81
  -0.00000305  -0.00026206   0.00000346           -0.45      -38.55        0.51
  -0.00000553   0.00000346  -0.00026819           -0.81        0.51      -39.45

     Energy error            =      1.4E+00 Ry
     Gradient error          =      1.2E-01 Ry/Bohr
     Cell gradient error     =      1.1E+03 kbar

     number of scf cycles    =   2
     number of bfgs steps    =   1

     enthalpy           old  =   -4469.9796631509 Ry
     enthalpy           new  =   -4471.3906142661 Ry

     CASE: enthalpy          _new < enthalpy          _old

     new trust radius        =       0.7349936370 bohr
     new conv_thr            =       0.0000010000 Ry

     new unit-cell volume =   4177.93777 a.u.^3 (   619.10650 Ang^3 )
     density =      4.41431 g/cm^3

CELL_PARAMETERS (angstrom)
   9.144600782  -0.001514349  -0.001371048
  -0.001580796   8.233158838   0.002312140
  -0.001412777   0.002311956   8.223073660

ATOMIC_POSITIONS (angstrom)
Al           -0.0005715392       -0.0005672893        0.0013222811
Ti            2.2855670539       -0.0006063613       -0.0001796459
Al           -0.0073157066        2.0565028419        2.0566822261
Ti            2.3089913986        2.0579429362        2.0535312771
N             2.2790601773       -0.0065323803        2.0592128132
N            -0.0003174937        0.0033025591        2.0488188975
N             2.2819820210        2.0539117735       -0.0085030740
N             0.0004330336        2.0442619007        0.0000418520
Al           -0.0005791562        0.0002525943        4.1105246535
Al            2.2790500629       -0.0008630703        4.1107105804
Al            0.0045891715        2.0579646665        6.1669793431
Al            2.2782532542        2.0567145184        6.1644268617
N             2.2775249989        0.0106108109        6.1621824791
N            -0.0060929950        0.0012112389        6.1719842119
N             2.2858292596        2.0614508340        4.1252847103
N            -0.0018581565        2.0549222307        4.1126187310
Ti           -0.0063378262        4.1164358589        0.0017069024
Ti            2.2843611523        4.1157801572        0.0000567365
Al           -0.0037185085        6.1774098999        2.0586135455
Al            2.2806748814        6.1776581718        2.0608919211
N             2.2812154820        4.1229199506        2.0654920901
N            -0.0037669922        4.1169758467        2.0625262715
N             2.2836701201        6.1790934727        0.0101062354
N            -0.0006370597        6.1870171273       -0.0011863487
Ti           -0.0000694438        4.1186076314        4.1128258875
Al            2.2910687727        4.1186895668        4.1117638981
Al           -0.0024269058        6.1801663867        6.1673418912
Ti            2.3130176096        6.1820260276        6.1697923923
N             2.2824345517        4.1069264187        6.1591442515
[...]
   -24.3464 -24.3361 -24.3341 -24.3063 -24.2866 -24.2800 -24.2544 -24.2345
   -24.2189 -24.2057 -24.2047 -24.2015 -24.1917 -24.1817 -24.1781 -24.1731
   -24.1613 -24.1360 -24.1211 -24.1119 -24.1034 -24.0973 -24.0947 -24.0597
   -24.0534 -24.0158 -23.9817 -23.9549 -23.9449 -23.9149 -23.9004 -23.8567
    -6.4466  -6.2478  -6.2341  -6.2066  -6.0392  -5.8855  -5.8593  -5.8312
    -5.2370  -5.1648  -5.1145  -5.0819  -5.0498  -5.0049  -4.9833  -4.8836
    -4.8097  -4.7876  -4.7744  -4.7510  -4.7220  -4.7189  -4.6811  -4.6510
    -4.5303  -4.4993  -4.4204  -4.3580  -4.3378  -4.3089  -4.2861  -3.8956
     1.8678   2.0727   2.2149   2.2500   2.3348   2.3629   2.5941   2.6081
     2.8053   2.8688   2.9470   2.9690   3.0343   3.4330   3.4963   3.7472
     3.8236   3.8467   3.8783   3.9122   3.9923   4.0362   4.1076   4.1553
     4.1660   4.1942   4.2988   4.4637   4.6357   4.6491   4.7144   4.7582
     4.7611   4.8110   4.8399   4.8713   4.8835   4.9586   4.9905   5.0126
     5.0179   5.0932   5.1154   5.2924   5.3530   5.4172   5.4522   5.4920
     5.5579   5.6174   5.6862   5.7609   5.7935   5.8488   5.9375   5.9587
     6.0103   6.0591   6.1682   6.1721   6.2178   6.2765   6.3016   6.3156
     6.3333   6.4843   6.5146   6.5398   6.5711   6.5805   6.6070   6.6149
     6.6422   6.6472   6.6610   6.7000   6.7222   6.7654   6.8113   6.8344
     6.8949   6.9200   6.9906   6.9950   7.0225   7.0631   7.0872   7.1119
     7.2248   7.4624   7.7056   7.7522   7.7655   7.8508   8.1013   8.1813
     8.4432   8.7639   8.7866   9.0125   9.0297   9.1292   9.2951   9.4042
     9.4519   9.5793   9.6045   9.7030   9.7693   9.9388   9.9878  10.1513
    10.2504  10.3034  10.3618  10.3722  10.4916  10.4987  10.5083  10.5474
    10.5840  10.6254  10.6465  10.6641  10.7046  10.7284  10.7681  10.8027
    10.8233  10.8606  10.9063  10.9631  11.0430  11.0787  11.1693  11.2343
    11.2482  11.2588  11.2945  11.3699  11.3760  11.4295  11.4809  11.6052

     the Fermi energy is     9.3822 ev

!    total energy              =   -4477.58795144 Ry
     total all-electron energy =    -38600.200537 Ry
     estimated scf accuracy    <       0.00000092 Ry
     smearing contrib. (-TS)   =      -0.00471468 Ry
     internal energy E=F+TS    =   -4477.58323676 Ry

     The total energy is F=E-TS. E is the sum of the following terms:
     one-electron contribution =   -1394.48514679 Ry
     hartree contribution      =     885.92610986 Ry
     xc contribution           =    -523.83910998 Ry
     ewald contribution        =   -1589.83208460 Ry
     one-center paw contrib.   =   -1855.35300526 Ry

     convergence has been achieved in  22 iterations

     Forces acting on atoms (cartesian axes, Ry/au):

     atom    1 type  1   force =     0.00102808    0.00168760   -0.00058188
     atom    2 type  3   force =     0.01077015   -0.00196785    0.00431438
     atom    3 type  1   force =    -0.00186339   -0.00412502   -0.00206050
     atom    4 type  3   force =     0.02444479   -0.00006526    0.00415204
     atom    5 type  2   force =     0.01017293   -0.00032806   -0.00278140
     atom    6 type  2   force =     0.00219882    0.01112303   -0.01591258
     atom    7 type  2   force =     0.00217943   -0.00120171   -0.00299764
     atom    8 type  2   force =     0.00027346    0.00548259   -0.00285176
     atom    9 type  1   force =    -0.00015479    0.00070554    0.00170635
     atom   10 type  1   force =    -0.00010812   -0.00055701   -0.00064493
     atom   11 type  1   force =    -0.00192762   -0.00207300    0.00079480
     atom   12 type  1   force =    -0.00845111    0.00164285    0.00294169
     atom   13 type  2   force =     0.01741432    0.00166640   -0.00178802
     atom   14 type  2   force =    -0.00167579   -0.00261856    0.01508366
     atom   15 type  2   force =     0.00808132    0.00188198   -0.00580429
     atom   16 type  2   force =     0.00108688    0.01037513    0.00480486
     atom   17 type  3   force =     0.00512585   -0.00284741   -0.00083447
     atom   18 type  3   force =     0.00438520    0.00253321    0.00406946
     atom   19 type  1   force =    -0.00236675   -0.00099501   -0.00398325
     atom   20 type  1   force =     0.00145381   -0.00041210   -0.00104988
     atom   21 type  2   force =     0.00574129   -0.00016745   -0.00117058
     atom   22 type  2   force =    -0.00305819   -0.00729080    0.00000375
     atom   23 type  2   force =    -0.00020678    0.00028029    0.00038249
     atom   24 type  2   force =     0.00059531   -0.00420381   -0.01156078
     atom   25 type  3   force =     0.00538323   -0.00441070    0.00283845
     atom   26 type  1   force =    -0.00691572    0.00102754   -0.00156142
     atom   27 type  1   force =     0.00106410   -0.00030137    0.00271094
     atom   28 type  3   force =     0.01376265    0.00065308   -0.00143803
     atom   29 type  2   force =     0.00858176   -0.00128200    0.00092221
     atom   30 type  2   force =    -0.00552611    0.00270863    0.00078449
     atom   31 type  2   force =     0.00838124   -0.00206475    0.00751378
     atom   32 type  2   force =     0.00139005   -0.00766720    0.00788389
     atom   33 type  1   force =    -0.00396266   -0.00039388    0.00012930
     atom   34 type  3   force =    -0.00780763   -0.00130560   -0.01098491
     atom   35 type  3   force =    -0.04678107   -0.00676351   -0.00389962
     atom   36 type  1   force =     0.00522706    0.00317180    0.00337994
     atom   37 type  2   force =    -0.01700708   -0.00007850   -0.00337961
     atom   38 type  2   force =     0.00681034    0.00477298    0.00169895
     atom   39 type  2   force =    -0.00146415   -0.00089121    0.00917536
     atom   40 type  2   force =    -0.00129539    0.00466381   -0.00057291
     atom   41 type  3   force =    -0.00076226    0.00015759   -0.00231098
     atom   42 type  1   force =     0.00187665    0.00012145   -0.00128961
     atom   43 type  3   force =     0.04433331   -0.00617275    0.00406375
     atom   44 type  3   force =    -0.03530368   -0.00193434    0.00493436
     atom   45 type  2   force =     0.00004416    0.00100125   -0.00441824
     atom   46 type  2   force =    -0.00462400    0.00534848   -0.00344327
     atom   47 type  2   force =    -0.00473402    0.00206197    0.00170366
     atom   48 type  2   force =    -0.00015428   -0.00874512    0.00054551
     atom   49 type  3   force =    -0.00104178   -0.00107745    0.00168922
     atom   50 type  3   force =    -0.00300073    0.00202398   -0.00564168
     atom   51 type  3   force =    -0.00269897    0.00605764   -0.00443103
     atom   52 type  1   force =    -0.00324918   -0.00265856    0.00284471
     atom   53 type  2   force =    -0.00845618    0.00074228   -0.00552048
     atom   54 type  2   force =     0.00319407   -0.00240981   -0.00871760
     atom   55 type  2   force =    -0.00084564    0.00006408    0.00747932
     atom   56 type  2   force =    -0.00100683   -0.00597242    0.00238546
     atom   57 type  1   force =    -0.00062651    0.00019771   -0.00077864
     atom   58 type  1   force =     0.00833712    0.00186995   -0.00106522
     atom   59 type  3   force =     0.00460142    0.00378917    0.00056741
     atom   60 type  3   force =    -0.02299076    0.00170633    0.00504556
     atom   61 type  2   force =     0.00248490   -0.00125175   -0.00437670
     atom   62 type  2   force =    -0.00252753   -0.00636591    0.01007118
     atom   63 type  2   force =    -0.00711877   -0.00025595    0.00394266
     atom   64 type  2   force =    -0.00071022    0.01133748   -0.00271173

     Total force =     0.105774     Total SCF correction =     0.002986


     Computing stress (Cartesian axis) and pressure

          total   stress  (Ry/bohr**3)                   (kbar)     P=       23.01
   0.00055388  -0.00000327  -0.00000810           81.48       -0.48       -1.19
  -0.00000327  -0.00006055   0.00000696           -0.48       -8.91        1.02
  -0.00000810   0.00000696  -0.00002412           -1.19        1.02       -3.55

     Energy error            =      2.6E-01 Ry
     Gradient error          =      4.7E-02 Ry/Bohr
     Cell gradient error     =      8.1E+01 kbar

     number of scf cycles    =   9
     number of bfgs steps    =   8

     enthalpy           old  =   -4477.3286495940 Ry
     enthalpy           new  =   -4477.5879514393 Ry

     CASE: enthalpy          _new < enthalpy          _old

     new trust radius        =       0.8000000000 bohr
     new conv_thr            =       0.0000010000 Ry

     new unit-cell volume =   5652.49801 a.u.^3 (   837.61379 Ang^3 )
     density =      3.26275 g/cm^3

CELL_PARAMETERS (angstrom)
  13.629780093  -0.028061591  -0.023473387
  -0.027703960   7.846104642  -0.002023686
  -0.025240635  -0.002090988   7.832609426

ATOMIC_POSITIONS (angstrom)
Al            0.0255799959       -0.0064626108        0.0072044021
Ti            3.5150212172       -0.0048798844        0.0001656402
Al            0.0536245743        1.9081227840        1.9591866970
Ti            3.4005615995        1.9528311999        2.0422240795
N             3.3353658239       -0.0278066635        1.9891384148
N            -0.0524264303       -0.0334936216        1.9748650397
N             3.2715759001        1.9641386923       -0.0131827967
N             0.0025412019        1.8962327912        0.0153308897
Al           -0.0107403094       -0.0051607762        3.9059499372
Al            3.5888465547        0.0010672698        3.9153691647
Al           -0.1104971118        1.9153513752        5.8643667020
Al            3.4981163099        1.9556662624        5.8816806805
N             3.3521625894        0.0205560830        5.8372568729
N             0.0036227434       -0.0015410876        5.8510629138
N             3.3700421851        1.9602617035        3.9980795763
N            -0.0083065140        1.9089592766        3.8901121757
Ti            0.0090450326        3.9303106487        0.0027542766
Ti            3.5715256466        3.9220052125       -0.0028477718
Al           -0.0321845927        5.9168055759        1.9659603836
Al            3.5843509845        5.8837075622        1.9461644944
N             3.3671255395        3.9526143600        1.9932463449
N            -0.0715031834        3.9387758432        1.9461155824
N             3.2570245188        5.8803117040       -0.0062386182
N            -0.0033279191        5.9368802538       -0.0029703512
Ti           -0.0153063842        3.9270902597        3.9102896611
Al            3.1078054496        3.9144477992        3.9116411610
Al           -0.0540335822        5.9249267646        5.8642988637
Ti            3.2842642537        5.8761686389        5.7807088471
N             3.3565258084        3.8887291732        5.8359912428
N            -0.0432292671        3.9056944297        5.8782911516
N             3.3562522270        5.8812236050        3.8383529024
N            -0.0162483290        5.9208830051        3.9175939490
Al            6.7763731810       -0.0153013818       -0.0195027654
Ti           10.1621796999       -0.0166030266        0.0553426455
Ti            6.5494385305        1.9460562177        1.9392608627
Al           10.1027154779        1.9465072251        1.9598023989
N            10.2306828365       -0.0055603762        2.0025509541
N             6.8872502383       -0.0117122795        1.9079547568
N            10.3253244944        1.9501132365        0.0185439732
N             6.7915780157        1.9161236931       -0.0241428042
Ti            6.8164846499       -0.0182681022        3.8987552546
Al           10.0349815762       -0.0170155786        3.9018902835
Ti            7.0815105114        1.9415449105        5.8564478145
Ti           10.1479571167        1.9341645004        5.8015822659
N            10.3186000588       -0.0231638692        5.8506919115
N             6.7200339031       -0.0137569321        5.8875946254
N            10.2385129945        1.9415509924        3.8449071254
N             6.7975914912        1.9917018314        3.8966489297
Ti            6.7848739767        3.9067542892       -0.0253618222
Ti           10.0284354614        3.9045416835        0.0362770663
Ti            6.8147955423        5.8710794667        1.9277637164
Al           10.0285082477        5.8660829524        1.9569772710
N            10.1723067007        3.8967647814        2.0070180085
N             6.8373332419        3.9013241349        1.9744081459
N            10.3316789505        5.8633362730        0.0164668605
N             6.7945395901        5.8979386860       -0.0237166288
Al            6.7809072253        3.9028463417        3.8925972152
Al           10.4786944709        3.9009576637        3.8929117734
Ti            6.7900553026        5.8627168638        5.8488144898
Ti           10.1424620910        5.8655345839        5.8039087749
N            10.2423138768        3.9098867032        5.8438731861
N             6.7118805973        3.8990154239        5.8072144525
N            10.2410598086        5.8692638849        3.8409926327
N             6.7898155526        5.8140071047        3.8940605926



     Writing config-only to output data dir ../output/TiAlN.save/
     NEW-OLD atomic charge density approx. for the potential

     Check: negative core charge=   -0.000001
     extrapolated charge  417.24829, renormalised to  400.00000

     total cpu time spent up to now is     6508.5 secs

     Self-consistent Calculation

     iteration #  1     ecut=   135.00 Ry     beta= 0.20
     Davidson diagonalization with overlap
     ethr =  1.00E-06,  avg # of iterations = 35.9

     total cpu time spent up to now is     6664.7 secs

     total energy              =   -4465.34616946 Ry
     estimated scf accuracy    <     114.55076842 Ry

     iteration #  2     ecut=   135.00 Ry     beta= 0.20
     Davidson diagonalization with overlap
     ethr =  1.00E-02,  avg # of iterations =  2.9

     total cpu time spent up to now is     6691.1 secs

     total energy              =   -4477.31198326 Ry
     estimated scf accuracy    <       1.85575041 Ry

     iteration #  3     ecut=   135.00 Ry     beta= 0.20
     Davidson diagonalization with overlap
     ethr =  4.64E-04,  avg # of iterations =  9.9

     total cpu time spent up to now is     6736.2 secs

     total energy              =   -4478.06988638 Ry
     estimated scf accuracy    <       6.64366278 Ry

     iteration #  4     ecut=   135.00 Ry     beta= 0.20
     Davidson diagonalization with overlap
     ethr =  4.64E-04,  avg # of iterations =  1.2

     total cpu time spent up to now is     6760.1 secs

     total energy              =   -4477.85628749 Ry
     estimated scf accuracy    <       4.64911878 Ry

     iteration #  5     ecut=   135.00 Ry     beta= 0.20
     Davidson diagonalization with overlap
     ethr =  4.64E-04,  avg # of iterations =  1.6

     total cpu time spent up to now is     6784.0 secs

     total energy              =   -4477.89036694 Ry
     estimated scf accuracy    <       1.17383992 Ry

     iteration #  6     ecut=   135.00 Ry     beta= 0.20
     Davidson diagonalization with overlap
     ethr =  2.93E-04,  avg # of iterations =  1.1

     total cpu time spent up to now is     6807.1 secs

     total energy              =   -4477.72796671 Ry
     estimated scf accuracy    <       1.14412506 Ry

     iteration #  7     ecut=   135.00 Ry     beta= 0.20
     Davidson diagonalization with overlap
     ethr =  2.86E-04,  avg # of iterations =  2.0

     total cpu time spent up to now is     6831.5 secs

     total energy              =   -4477.77577853 Ry
     estimated scf accuracy    <       0.26039334 Ry

     iteration #  8     ecut=   135.00 Ry     beta= 0.20
     Davidson diagonalization with overlap
     ethr =  6.51E-05,  avg # of iterations = 11.6

     total cpu time spent up to now is     6861.2 secs

     total energy              =   -4477.76951450 Ry
     estimated scf accuracy    <       0.24563286 Ry

     iteration #  9     ecut=   135.00 Ry     beta= 0.20
     Davidson diagonalization with overlap
     ethr =  6.14E-05,  avg # of iterations =  1.8

     total cpu time spent up to now is     6885.4 secs

     total energy              =   -4477.76263056 Ry
     estimated scf accuracy    <       0.17189925 Ry

     iteration # 10     ecut=   135.00 Ry     beta= 0.20
     Davidson diagonalization with overlap
     ethr =  4.30E-05,  avg # of iterations =  4.2

     total cpu time spent up to now is     6911.6 secs

     total energy              =   -4477.73248278 Ry
     estimated scf accuracy    <       0.13412478 Ry

     iteration # 11     ecut=   135.00 Ry     beta= 0.20
     Davidson diagonalization with overlap
     c_bands:  2 eigenvalues not converged
     ethr =  3.35E-05,  avg # of iterations = 17.4

     total cpu time spent up to now is     6947.3 secs

     total energy              =   -4477.74550544 Ry
     estimated scf accuracy    <       0.04130342 Ry

     iteration # 12     ecut=   135.00 Ry     beta= 0.20
     Davidson diagonalization with overlap
     ethr =  1.03E-05,  avg # of iterations = 11.1

     total cpu time spent up to now is     6978.6 secs

     total energy              =   -4477.74575031 Ry
     estimated scf accuracy    <       0.01647107 Ry

     iteration # 13     ecut=   135.00 Ry     beta= 0.20
     Davidson diagonalization with overlap
     c_bands:  1 eigenvalues not converged
     c_bands:  1 eigenvalues not converged
     ethr =  4.12E-06,  avg # of iterations =  9.4

     total cpu time spent up to now is     7010.4 secs

     total energy              =   -4477.74490989 Ry
     estimated scf accuracy    <       0.01166389 Ry

     iteration # 14     ecut=   135.00 Ry     beta= 0.20
     Davidson diagonalization with overlap
     ethr =  2.92E-06,  avg # of iterations =  9.2

     total cpu time spent up to now is     7043.2 secs

     total energy              =   -4477.74545449 Ry
     estimated scf accuracy    <       0.00220158 Ry

     iteration # 15     ecut=   135.00 Ry     beta= 0.20
     Davidson diagonalization with overlap
     ethr =  5.50E-07,  avg # of iterations =  6.2

     total cpu time spent up to now is     7071.4 secs

     total energy              =   -4477.74531936 Ry
     estimated scf accuracy    <       0.00114324 Ry

     iteration # 16     ecut=   135.00 Ry     beta= 0.20
     Davidson diagonalization with overlap
     ethr =  2.86E-07,  avg # of iterations =  6.9

     total cpu time spent up to now is     7103.3 secs

     total energy              =   -4477.74541314 Ry
     estimated scf accuracy    <       0.00056302 Ry

     iteration # 17     ecut=   135.00 Ry     beta= 0.20
     Davidson diagonalization with overlap
     ethr =  1.41E-07,  avg # of iterations =  2.0

     total cpu time spent up to now is     7127.7 secs

     total energy              =   -4477.74540851 Ry
     estimated scf accuracy    <       0.00019380 Ry

     iteration # 18     ecut=   135.00 Ry     beta= 0.20
     Davidson diagonalization with overlap
     ethr =  4.85E-08,  avg # of iterations =  4.1

     total cpu time spent up to now is     7154.1 secs

     total energy              =   -4477.74541142 Ry
     estimated scf accuracy    <       0.00006121 Ry

     iteration # 19     ecut=   135.00 Ry     beta= 0.20
     Davidson diagonalization with overlap
     ethr =  1.53E-08,  avg # of iterations =  7.1

     total cpu time spent up to now is     7185.2 secs

     total energy              =   -4477.74542297 Ry
     estimated scf accuracy    <       0.00001671 Ry

     iteration # 20     ecut=   135.00 Ry     beta= 0.20
     Davidson diagonalization with overlap
     ethr =  4.18E-09,  avg # of iterations =  3.6

     total cpu time spent up to now is     7211.0 secs

     total energy              =   -4477.74542322 Ry
     estimated scf accuracy    <       0.00000885 Ry

     iteration # 21     ecut=   135.00 Ry     beta= 0.20
     Davidson diagonalization with overlap
