
     Program PWSCF v.7.1 starts on 29Apr2026 at 12: 8:13 

     This program is part of the open-source Quantum ESPRESSO suite
     for quantum simulation of materials; please cite
         "P. Giannozzi et al., J. Phys.:Condens. Matter 21 395502 (2009);
         "P. Giannozzi et al., J. Phys.:Condens. Matter 29 465901 (2017);
         "P. Giannozzi et al., J. Chem. Phys. 152 154105 (2020);
          URL http://www.quantum-espresso.org", 
     in publications or presentations arising from this work. More details at
     http://www.quantum-espresso.org/quote

     Parallel version (MPI & OpenMP), running on      12 processor cores
     Number of MPI processes:                12
     Threads/MPI process:                     1

     MPI processes distributed on     1 nodes
     91985 MiB available memory on the printing compute node when the environment starts
 
     Reading input from TiAlN_scf.in

     Current dimensions of program PWSCF are:
     Max number of different atomic species (ntypx) = 10
     Max number of k-points (npk) = 150000
     Max angular momentum in pseudopotentials (lmaxx) =  4
     file Al.pbe-n-kjpaw_psl.1.0.0.UPF: wavefunction(s)  3S 3P renormalized
     file N.pbe-n-kjpaw_psl.1.0.0.UPF: wavefunction(s)  2S renormalized
     file Ti.pbe-spn-kjpaw_psl.1.0.0.UPF: wavefunction(s)  3S 3P 3D renormalized
 
     K-points division:     npool     =       2
     R & G space division:  proc/nbgrp/npool/nimage =       6
     Subspace diagonalization in iterative solution of the eigenvalue problem:
     one sub-group per band group will be used
     scalapack distributed-memory algorithm (size of sub-group:  2*  2 procs)

 
     Parallelization info
     --------------------
     sticks:   dense  smooth     PW     G-vecs:    dense   smooth      PW
     Min         236     236     66                 5857     5857     867
     Max         237     237     67                 5860     5860     869
     Sum        1417    1417    397                35149    35149    5209
 
     Using Slab Decomposition
 


     bravais-lattice index     =            0
     lattice parameter (alat)  =      22.6626  a.u.
     unit-cell volume          =    8230.2713 (a.u.)^3
     number of atoms/cell      =          128
     number of atomic types    =            3
     number of electrons       =       800.00
     number of Kohn-Sham states=          480
     kinetic-energy cutoff     =      10.0000  Ry
     charge density cutoff     =      40.0000  Ry
     scf convergence threshold =      1.0E-08
     mixing beta               =       0.2000
     number of iterations used =            8  local-TF  mixing
     Exchange-correlation= SLA  PW   PBX  PBC
                           (   1   4   3   4   0   0   0)

     celldm(1)=  22.662599  celldm(2)=   0.000000  celldm(3)=   0.000000
     celldm(4)=   0.000000  celldm(5)=   0.000000  celldm(6)=   0.000000

     crystal axes: (cart. coord. in units of alat)
               a(1) = (   1.000000   0.000000   0.000000 )  
               a(2) = (   0.500000   0.866025   0.000000 )  
               a(3) = (   0.500000   0.288675   0.816497 )  

     reciprocal axes: (cart. coord. in units 2 pi/alat)
               b(1) = (  1.000000 -0.577350 -0.408248 )  
               b(2) = (  0.000000  1.154701 -0.408248 )  
               b(3) = (  0.000000  0.000000  1.224745 )  


     PseudoPot. # 1 for Al read from file:
     ../../pseudo/Al.pbe-n-kjpaw_psl.1.0.0.UPF
     MD5 check sum: 502b6b27b9c6270cab5dd1084b96fa6d
     Pseudo is Projector augmented-wave + core cor, Zval =  3.0
     Generated using &quot;atomic&quot; code by A. Dal Corso  v.6.3
     Shape of augmentation charge: PSQ
     Using radial grid of 1135 points,  6 beta functions with: 
                l(1) =   0
                l(2) =   0
                l(3) =   1
                l(4) =   1
                l(5) =   2
                l(6) =   2
     Q(r) pseudized with 0 coefficients 


     PseudoPot. # 2 for N  read from file:
     ../../pseudo/N.pbe-n-kjpaw_psl.1.0.0.UPF
     MD5 check sum: 14c48229446f9f2d411169a3abcbc3fa
     Pseudo is Projector augmented-wave + core cor, Zval =  5.0
     Generated using &quot;atomic&quot; code by A. Dal Corso  v.6.3
     Shape of augmentation charge: PSQ
     Using radial grid of 1085 points,  4 beta functions with: 
                l(1) =   0
                l(2) =   0
                l(3) =   1
                l(4) =   1
     Q(r) pseudized with 0 coefficients 


     PseudoPot. # 3 for Ti read from file:
     ../../pseudo/Ti.pbe-spn-kjpaw_psl.1.0.0.UPF
     MD5 check sum: 01f69b0d8ba4438b2e03ac6ea4af1c0b
     Pseudo is Projector augmented-wave + core cor, Zval = 12.0
     Generated using &quot;atomic&quot; code by A. Dal Corso  v.6.2.2
     Shape of augmentation charge: PSQ
     Using radial grid of 1177 points,  6 beta functions with: 
                l(1) =   0
                l(2) =   0
                l(3) =   1
                l(4) =   1
                l(5) =   2
                l(6) =   2
     Q(r) pseudized with 0 coefficients 


     atomic species   valence    mass     pseudopotential
        Al             3.00    26.98200     Al( 1.00)
        N              5.00    14.00700     N ( 1.00)
        Ti            12.00    47.86700     Ti( 1.00)

     No symmetry found



   Cartesian axes

     site n.     atom                  positions (alat units)
         1           Ti  tau(   1) = (   0.0000000   0.0000000   0.0000000  )
         2           N   tau(   2) = (   1.0000000   0.1443376   0.1020621  )
         3           Ti  tau(   3) = (   0.1250000   0.0721688   0.2041241  )
         4           N   tau(   4) = (   1.1250000   0.2165064   0.3061862  )
         5           Al  tau(   5) = (   0.2500000   0.1443376   0.4082483  )
         6           N   tau(   6) = (   1.2500000   0.2886751   0.5103104  )
         7           Ti  tau(   7) = (   0.3750000   0.2165064   0.6123724  )
         8           N   tau(   8) = (   1.3750000   0.3608439   0.7144345  )
         9           Ti  tau(   9) = (   0.1250000   0.2165064   0.0000000  )
        10           N   tau(  10) = (   1.1250000   0.3608439   0.1020621  )
        11           Ti  tau(  11) = (   0.2500000   0.2886751   0.2041241  )
        12           N   tau(  12) = (   1.2500000   0.4330127   0.3061862  )
        13           Al  tau(  13) = (   0.3750000   0.3608439   0.4082483  )
        14           N   tau(  14) = (   1.3750000   0.5051815   0.5103104  )
        15           Ti  tau(  15) = (   0.5000000   0.4330127   0.6123724  )
        16           N   tau(  16) = (   1.5000000   0.5773503   0.7144345  )
        17           Ti  tau(  17) = (   0.2500000   0.4330127   0.0000000  )
        18           N   tau(  18) = (   1.2500000   0.5773503   0.1020621  )
        19           Ti  tau(  19) = (   0.3750000   0.5051815   0.2041241  )
        20           N   tau(  20) = (   1.3750000   0.6495191   0.3061862  )
        21           Ti  tau(  21) = (   0.5000000   0.5773503   0.4082483  )
        22           N   tau(  22) = (   1.5000000   0.7216878   0.5103104  )
        23           Al  tau(  23) = (   1.6250000   0.6495191   0.6123724  )
        24           N   tau(  24) = (   1.6250000   0.7938566   0.7144345  )
        25           Al  tau(  25) = (   0.3750000   0.6495191   0.0000000  )
        26           N   tau(  26) = (   1.3750000   0.7938566   0.1020621  )
        27           Ti  tau(  27) = (   0.5000000   0.7216878   0.2041241  )
        28           N   tau(  28) = (   1.5000000   0.8660254   0.3061862  )
        29           Ti  tau(  29) = (   0.6250000   0.7938566   0.4082483  )
        30           N   tau(  30) = (   1.6250000   0.9381942   0.5103104  )
        31           Al  tau(  31) = (   1.7500000   0.8660254   0.6123724  )
        32           N   tau(  32) = (   1.7500000   1.0103630   0.7144345  )
        33           Ti  tau(  33) = (   0.2500000   0.0000000   0.0000000  )
        34           N   tau(  34) = (   0.2500000   0.1443376   0.1020621  )
        35           Ti  tau(  35) = (   0.3750000   0.0721688   0.2041241  )
        36           N   tau(  36) = (   0.3750000   0.2165064   0.3061862  )
        37           Al  tau(  37) = (   0.5000000   0.1443376   0.4082483  )
        38           N   tau(  38) = (   0.5000000   0.2886751   0.5103104  )
        39           Ti  tau(  39) = (   0.6250000   0.2165064   0.6123724  )
        40           N   tau(  40) = (   0.6250000   0.3608439   0.7144345  )
        41           Ti  tau(  41) = (   0.3750000   0.2165064   0.0000000  )
        42           N   tau(  42) = (   0.3750000   0.3608439   0.1020621  )
        43           Ti  tau(  43) = (   0.5000000   0.2886751   0.2041241  )
        44           N   tau(  44) = (   0.5000000   0.4330127   0.3061862  )
        45           Al  tau(  45) = (   0.6250000   0.3608439   0.4082483  )
        46           N   tau(  46) = (   0.6250000   0.5051815   0.5103104  )
        47           Ti  tau(  47) = (   0.7500000   0.4330127   0.6123724  )
        48           N   tau(  48) = (   0.7500000   0.5773503   0.7144345  )
        49           Al  tau(  49) = (   0.5000000   0.4330127   0.0000000  )
        50           N   tau(  50) = (   0.5000000   0.5773503   0.1020621  )
        51           Ti  tau(  51) = (   0.6250000   0.5051815   0.2041241  )
        52           N   tau(  52) = (   0.6250000   0.6495191   0.3061862  )
        53           Al  tau(  53) = (   0.7500000   0.5773503   0.4082483  )
        54           N   tau(  54) = (   0.7500000   0.7216878   0.5103104  )
        55           Ti  tau(  55) = (   0.8750000   0.6495191   0.6123724  )
        56           N   tau(  56) = (   0.8750000   0.7938566   0.7144345  )
        57           Al  tau(  57) = (   0.6250000   0.6495191   0.0000000  )
        58           N   tau(  58) = (   0.6250000   0.7938566   0.1020621  )
        59           Ti  tau(  59) = (   0.7500000   0.7216878   0.2041241  )
        60           N   tau(  60) = (   0.7500000   0.8660254   0.3061862  )
        61           Ti  tau(  61) = (   0.8750000   0.7938566   0.4082483  )
        62           N   tau(  62) = (   0.8750000   0.9381942   0.5103104  )
        63           Al  tau(  63) = (   1.0000000   0.8660254   0.6123724  )
        64           N   tau(  64) = (   1.0000000   1.0103630   0.7144345  )
        65           Al  tau(  65) = (   0.5000000   0.0000000   0.0000000  )
        66           N   tau(  66) = (   0.5000000   0.1443376   0.1020621  )
        67           Al  tau(  67) = (   0.6250000   0.0721688   0.2041241  )
        68           N   tau(  68) = (   0.6250000   0.2165064   0.3061862  )
        69           Al  tau(  69) = (   0.7500000   0.1443376   0.4082483  )
        70           N   tau(  70) = (   0.7500000   0.2886751   0.5103104  )
        71           Al  tau(  71) = (   0.8750000   0.2165064   0.6123724  )
        72           N   tau(  72) = (   0.8750000   0.3608439   0.7144345  )
        73           Ti  tau(  73) = (   0.6250000   0.2165064   0.0000000  )
        74           N   tau(  74) = (   0.6250000   0.3608439   0.1020621  )
        75           Ti  tau(  75) = (   0.7500000   0.2886751   0.2041241  )
        76           N   tau(  76) = (   0.7500000   0.4330127   0.3061862  )
        77           Ti  tau(  77) = (   0.8750000   0.3608439   0.4082483  )
        78           N   tau(  78) = (   0.8750000   0.5051815   0.5103104  )
        79           Al  tau(  79) = (   1.0000000   0.4330127   0.6123724  )
        80           N   tau(  80) = (   1.0000000   0.5773503   0.7144345  )
        81           Al  tau(  81) = (   0.7500000   0.4330127   0.0000000  )
        82           N   tau(  82) = (   0.7500000   0.5773503   0.1020621  )
        83           Al  tau(  83) = (   0.8750000   0.5051815   0.2041241  )
        84           N   tau(  84) = (   0.8750000   0.6495191   0.3061862  )
        85           Al  tau(  85) = (   1.0000000   0.5773503   0.4082483  )
        86           N   tau(  86) = (   1.0000000   0.7216878   0.5103104  )
        87           Ti  tau(  87) = (   1.1250000   0.6495191   0.6123724  )
        88           N   tau(  88) = (   1.1250000   0.7938566   0.7144345  )
        89           Al  tau(  89) = (   0.8750000   0.6495191   0.0000000  )
        90           N   tau(  90) = (   0.8750000   0.7938566   0.1020621  )
        91           Al  tau(  91) = (   1.0000000   0.7216878   0.2041241  )
        92           N   tau(  92) = (   1.0000000   0.8660254   0.3061862  )
        93           Ti  tau(  93) = (   1.1250000   0.7938566   0.4082483  )
        94           N   tau(  94) = (   1.1250000   0.9381942   0.5103104  )
        95           Al  tau(  95) = (   1.2500000   0.8660254   0.6123724  )
        96           N   tau(  96) = (   1.2500000   1.0103630   0.7144345  )
        97           Al  tau(  97) = (   0.7500000   0.0000000   0.0000000  )
        98           N   tau(  98) = (   0.7500000   0.1443376   0.1020621  )
        99           Al  tau(  99) = (   0.8750000   0.0721688   0.2041241  )
       100           N   tau( 100) = (   0.8750000   0.2165064   0.3061862  )
       101           Al  tau( 101) = (   1.0000000   0.1443376   0.4082483  )
       102           N   tau( 102) = (   1.0000000   0.2886751   0.5103104  )
       103           Ti  tau( 103) = (   1.6250000   1.0825318   0.6123724  )
       104           N   tau( 104) = (   1.1250000   0.3608439   0.7144345  )
       105           Al  tau( 105) = (   0.8750000   0.2165064   0.0000000  )
       106           N   tau( 106) = (   0.8750000   0.3608439   0.1020621  )
       107           Ti  tau( 107) = (   1.0000000   0.2886751   0.2041241  )
       108           N   tau( 108) = (   1.0000000   0.4330127   0.3061862  )
       109           Ti  tau( 109) = (   1.1250000   0.3608439   0.4082483  )
       110           N   tau( 110) = (   1.1250000   0.5051815   0.5103104  )
       111           Ti  tau( 111) = (   1.2500000   0.4330127   0.6123724  )
       112           N   tau( 112) = (   1.2500000   0.5773503   0.7144345  )
       113           Ti  tau( 113) = (   1.0000000   0.4330127   0.0000000  )
       114           N   tau( 114) = (   1.0000000   0.5773503   0.1020621  )
       115           Al  tau( 115) = (   1.1250000   0.5051815   0.2041241  )
       116           N   tau( 116) = (   1.1250000   0.6495191   0.3061862  )
       117           Al  tau( 117) = (   1.2500000   0.5773503   0.4082483  )
       118           N   tau( 118) = (   1.2500000   0.7216878   0.5103104  )
       119           Al  tau( 119) = (   1.3750000   0.6495191   0.6123724  )
       120           N   tau( 120) = (   1.3750000   0.7938566   0.7144345  )
       121           Al  tau( 121) = (   1.1250000   0.6495191   0.0000000  )
       122           N   tau( 122) = (   1.1250000   0.7938566   0.1020621  )
       123           Ti  tau( 123) = (   1.2500000   0.7216878   0.2041241  )
       124           N   tau( 124) = (   1.2500000   0.8660254   0.3061862  )
       125           Al  tau( 125) = (   1.3750000   0.7938566   0.4082483  )
       126           N   tau( 126) = (   1.3750000   0.9381942   0.5103104  )
       127           Al  tau( 127) = (   1.5000000   0.8660254   0.6123724  )
       128           N   tau( 128) = (   1.5000000   1.0103630   0.7144345  )

     number of k points=     8  Gaussian smearing, width (Ry)=  0.0050
                       cart. coord. in units 2pi/alat
        k(    1) = (   0.0000000   0.0000000   0.0000000), wk =   0.2500000
        k(    2) = (   0.0000000   0.0000000  -0.6123724), wk =   0.2500000
        k(    3) = (   0.0000000  -0.5773503   0.2041241), wk =   0.2500000
        k(    4) = (   0.0000000  -0.5773503  -0.4082483), wk =   0.2500000
        k(    5) = (   0.5000000   0.2886751   0.2041241), wk =   0.2500000
        k(    6) = (  -0.5000000   0.2886751   0.2041241), wk =   0.2500000
        k(    7) = (   0.5000000   0.2886751  -0.4082483), wk =   0.2500000
        k(    8) = (  -0.5000000   0.2886751  -0.4082483), wk =   0.2500000

     Dense  grid:    35149 G-vectors     FFT dimensions: (  45,  45,  45)

     Estimated max dynamical RAM per process >     105.73 MB

     Estimated total dynamical RAM >       1.23 GB

     Check: negative core charge=   -0.007804

     Initial potential from superposition of free atoms

     starting charge     799.8789, renormalised to     800.0000

     negative rho (up, down):  2.424E-02 0.000E+00
     Starting wfcs are  704 randomized atomic wfcs
     Checking if some PAW data can be deallocated... 

     total cpu time spent up to now is        5.8 secs

     Self-consistent Calculation

     iteration #  1     ecut=    10.00 Ry     beta= 0.20
     Davidson diagonalization with overlap
     ethr =  1.00E-02,  avg # of iterations =  7.1

     negative rho (up, down):  5.800E-03 0.000E+00

     total cpu time spent up to now is       28.8 secs

     total energy              =   -8625.69957387 Ry
     estimated scf accuracy    <     171.34440477 Ry

     iteration #  2     ecut=    10.00 Ry     beta= 0.20
     Davidson diagonalization with overlap
     ethr =  1.00E-02,  avg # of iterations =  1.0

     total cpu time spent up to now is       38.3 secs

     total energy              =   -8534.01539081 Ry
     estimated scf accuracy    <     133.93109958 Ry

     iteration #  3     ecut=    10.00 Ry     beta= 0.20
     Davidson diagonalization with overlap
     ethr =  1.00E-02,  avg # of iterations =  2.0

     total cpu time spent up to now is       49.9 secs

     total energy              =   -8544.40138218 Ry
     estimated scf accuracy    <       7.46438668 Ry

     iteration #  4     ecut=    10.00 Ry     beta= 0.20
     Davidson diagonalization with overlap
     ethr =  9.33E-04,  avg # of iterations =  4.6

     negative rho (up, down):  1.293E-03 0.000E+00

     total cpu time spent up to now is       65.8 secs

     total energy              =   -8541.79323492 Ry
     estimated scf accuracy    <       3.38814323 Ry

     iteration #  5     ecut=    10.00 Ry     beta= 0.20
     Davidson diagonalization with overlap
     ethr =  4.24E-04,  avg # of iterations =  9.6

     negative rho (up, down):  3.440E-03 0.000E+00

     total cpu time spent up to now is       94.4 secs

     total energy              =   -8542.19482528 Ry
     estimated scf accuracy    <       0.36245622 Ry

     iteration #  6     ecut=    10.00 Ry     beta= 0.20
     Davidson diagonalization with overlap
     ethr =  4.53E-05,  avg # of iterations = 10.2

     negative rho (up, down):  1.839E-04 0.000E+00

     total cpu time spent up to now is      124.9 secs

     total energy              =   -8542.13904790 Ry
     estimated scf accuracy    <       0.16927974 Ry

     iteration #  7     ecut=    10.00 Ry     beta= 0.20
     Davidson diagonalization with overlap
     ethr =  2.12E-05,  avg # of iterations =  2.0

     negative rho (up, down):  8.559E-04 0.000E+00

     total cpu time spent up to now is      137.4 secs

     total energy              =   -8542.16218454 Ry
     estimated scf accuracy    <       0.01155950 Ry

     iteration #  8     ecut=    10.00 Ry     beta= 0.20
     Davidson diagonalization with overlap
     ethr =  1.44E-06,  avg # of iterations = 15.4

     negative rho (up, down):  9.772E-04 0.000E+00

     total cpu time spent up to now is      168.2 secs

     total energy              =   -8542.16368464 Ry
     estimated scf accuracy    <       0.00430949 Ry

     iteration #  9     ecut=    10.00 Ry     beta= 0.20
     Davidson diagonalization with overlap
     ethr =  5.39E-07,  avg # of iterations =  2.8

     negative rho (up, down):  4.229E-04 0.000E+00

     total cpu time spent up to now is      182.2 secs

     total energy              =   -8542.16140029 Ry
     estimated scf accuracy    <       0.00371397 Ry

     iteration # 10     ecut=    10.00 Ry     beta= 0.20
     Davidson diagonalization with overlap
     ethr =  4.64E-07,  avg # of iterations =  2.0

     negative rho (up, down):  4.789E-04 0.000E+00

     total cpu time spent up to now is      194.1 secs

     total energy              =   -8542.16179718 Ry
     estimated scf accuracy    <       0.00017530 Ry

     iteration # 11     ecut=    10.00 Ry     beta= 0.20
     Davidson diagonalization with overlap
     ethr =  2.19E-08,  avg # of iterations =  5.0

     negative rho (up, down):  5.491E-04 0.000E+00

     total cpu time spent up to now is      209.9 secs

     total energy              =   -8542.16178636 Ry
     estimated scf accuracy    <       0.00005901 Ry

     iteration # 12     ecut=    10.00 Ry     beta= 0.20
     Davidson diagonalization with overlap
     ethr =  7.38E-09,  avg # of iterations =  2.9

     negative rho (up, down):  5.363E-04 0.000E+00

     total cpu time spent up to now is      223.6 secs

     total energy              =   -8542.16179755 Ry
     estimated scf accuracy    <       0.00001059 Ry

     iteration # 13     ecut=    10.00 Ry     beta= 0.20
     Davidson diagonalization with overlap
     ethr =  1.32E-09,  avg # of iterations =  3.8

     negative rho (up, down):  5.215E-04 0.000E+00

     total cpu time spent up to now is      237.5 secs

     total energy              =   -8542.16179243 Ry
     estimated scf accuracy    <       0.00000819 Ry

     iteration # 14     ecut=    10.00 Ry     beta= 0.20
     Davidson diagonalization with overlap
     ethr =  1.02E-09,  avg # of iterations =  2.0

     negative rho (up, down):  5.230E-04 0.000E+00

     total cpu time spent up to now is      249.8 secs

     total energy              =   -8542.16179378 Ry
     estimated scf accuracy    <       0.00000066 Ry

     iteration # 15     ecut=    10.00 Ry     beta= 0.20
     Davidson diagonalization with overlap
     ethr =  8.19E-11,  avg # of iterations =  3.0

     negative rho (up, down):  5.233E-04 0.000E+00

     total cpu time spent up to now is      261.7 secs

     total energy              =   -8542.16179381 Ry
     estimated scf accuracy    <       0.00000019 Ry

     iteration # 16     ecut=    10.00 Ry     beta= 0.20
     Davidson diagonalization with overlap
     ethr =  2.34E-11,  avg # of iterations =  2.8

     negative rho (up, down):  5.210E-04 0.000E+00

     total cpu time spent up to now is      274.1 secs

     total energy              =   -8542.16179377 Ry
     estimated scf accuracy    <       0.00000011 Ry

     iteration # 17     ecut=    10.00 Ry     beta= 0.20
     Davidson diagonalization with overlap
     ethr =  1.35E-11,  avg # of iterations =  2.9

     negative rho (up, down):  5.215E-04 0.000E+00

     total cpu time spent up to now is      287.6 secs

     End of self-consistent calculation

          k = 0.0000 0.0000 0.0000 (  4477 PWs)   bands (ev):

   -61.5048 -61.4279 -61.3958 -61.3158 -61.2700 -61.2093 -61.1708 -61.1350
   -61.0419 -61.0210 -60.9759 -60.9681 -60.9398 -60.8925 -60.8832 -60.8574
   -60.8302 -60.7876 -60.7631 -60.7356 -60.7078 -60.6523 -60.6222 -60.6068
   -60.5611 -60.5435 -60.5217 -60.5135 -60.4381 -60.4250 -60.3605 -60.2199
   -23.8098 -23.6702 -23.5086 -23.4650 -23.3823 -23.1538 -22.6644 -22.5453
   -22.5073 -22.4856 -22.4360 -22.4153 -22.2958 -22.2773 -22.2560 -22.1622
   -22.1255 -22.0932 -21.9994 -21.9813 -21.9383 -21.9011 -21.8413 -21.8276
   -21.7878 -21.7629 -21.7211 -21.6856 -21.6168 -21.5383 -21.5174 -21.4955
   -21.4453 -21.3911 -21.3602 -21.3135 -21.2587 -21.2320 -21.2072 -21.1285
   -21.1096 -21.0929 -21.0714 -20.9955 -20.9440 -20.9378 -20.9099 -20.8549
   -20.8449 -20.7953 -20.7253 -20.6997 -20.5723 -20.5708 -20.5230 -20.4879
   -20.4271 -20.4022 -20.3699 -20.2796 -20.2535 -20.2228 -20.1566 -20.1143
   -20.0650 -20.0296 -20.0103 -19.9825 -19.9147 -19.9066 -19.8010 -19.7718
   -19.6651 -19.6224 -19.5691 -19.5393 -19.4857 -19.4171 -19.3569 -19.3116
   -19.2310 -19.1719 -19.1392 -19.1057 -18.9356 -18.9006 -18.8884 -18.8312
   -18.7975 -18.6893 -18.6545 -18.6253 -18.5914 -18.4932 -18.3714 -18.3352
    -4.5165  -3.8009  -3.7582  -3.7269  -3.6459  -3.6407  -3.5862  -3.5481
    -3.5067  -3.4967  -3.4801  -3.4341  -3.3731  -3.3580  -3.3009  -3.1881
    -3.1315  -3.0157  -2.9899  -2.9567  -2.9145  -2.8735  -2.8437  -2.7982
    -2.7848  -2.7747  -2.7611  -2.7470  -2.7208  -2.6986  -2.6872  -2.6721
    -2.6541  -2.6347  -2.6028  -2.5864  -2.5757  -2.5586  -2.5441  -2.5311
    -2.5076  -2.4735  -2.4256  -2.4166  -2.4023  -2.3775  -2.3712  -2.3475
    -2.3222  -2.3096  -2.2908  -2.2523  -2.2337  -2.2235  -2.1985  -2.1815
    -2.1674  -2.1559  -2.1090  -2.0311  -1.9900  -1.9357  -1.8611  -1.7164
     7.0802   7.1469   7.3649   7.3731   8.1879   8.2642   8.2879   8.3109
     8.3461   8.3585   8.3678   8.3845   8.4332   8.4734   8.5066   8.5268
     8.5482   8.5565   8.5773   8.6064   8.6449   8.6717   8.7098   8.7259
     8.7540   8.7598   8.8189   8.8210   8.8671   8.9022   8.9219   8.9660
     8.9849   9.0345   9.0755   9.0846   9.1447   9.1796   9.1964   9.3446
     9.4034   9.4472   9.5541   9.5927   9.6190   9.6491   9.6899   9.7000
     9.7704  10.2087  10.2793  10.3199  10.3408  10.3710  10.4442  10.4901
    10.5278  10.5823  10.6042  10.6605  10.7118  10.7399  10.7584  10.7906
    10.8063  10.8583  10.8865  10.9088  10.9638  10.9948  11.0447  11.0726
    11.0757  11.1064  11.1229  11.1600  11.1882  11.2037  11.2552  11.2749
    11.3154  11.3451  11.3629  11.4071  11.4499  11.4596  11.4957  11.5489
    11.5776  11.6056  11.6215  11.6302  11.6642  11.7160  11.7459  11.8037
    11.8483  11.9130  11.9337  11.9608  12.0164  12.0362  12.0537  12.0982
    12.1430  12.1764  12.2201  12.2439  12.2670  12.3033  12.3195  12.3687
    12.3893  12.4110  12.4465  12.4997  12.5186  12.5439  12.5621  12.5826
    12.6610  12.6674  12.6806  12.7162  12.7794  12.8037  12.8142  12.8614
    12.8823  12.9729  13.0372  13.0512  13.0867  13.1083  13.1617  13.2282
    13.2631  13.2981  13.3315  13.3859  13.4215  13.4646  13.4802  13.5424
    13.5551  13.6140  13.6327  13.6675  13.6964  13.7110  13.7393  13.7613
    13.7913  13.8360  13.8832  13.8956  13.9126  13.9363  13.9457  13.9680
    14.0086  14.0268  14.0891  14.1284  14.1545  14.1962  14.2312  14.3239
    14.4031  14.4783  14.5348  14.5662  14.6052  14.6479  14.6780  14.7424
    14.8011  14.8095  14.8892  14.8945  14.8999  14.9608  15.0006  15.0199
    15.0611  15.0739  15.1521  15.1727  15.1990  15.8338  15.8372  15.8755
    16.3632  16.3861  16.4540  17.1018  17.4761  17.6220  17.6809  17.6913
    17.7401  18.0648  18.4197  18.5342  18.6301  18.6730  18.6954  18.7425
    18.7742  18.8281  18.9084  18.9704  18.9856  19.0340  19.1022  19.1409
    19.1722  19.1774  19.2123  19.2605  19.3582  19.3971  19.4738  19.5174
    19.5543  19.6180  19.6305  19.6889  19.7204  19.7544  19.8272  19.8483
    19.9064  19.9664  20.0145  20.0207  20.0642  20.1248  20.1905  20.2500
    20.2849  20.4289  20.4685  20.5850  20.6920  20.7558  20.7930  20.8562
    21.0346  21.1240  21.3897  21.4840  21.5195  21.5530  21.5972  21.6322
    21.6713  21.6956  21.7469  21.7790  21.7972  21.8377  21.8708  21.8744
    21.9046  21.9432  21.9894  22.0043  22.0198  22.0349  22.0621  22.0930
    22.1242  22.1301  22.1723  22.1938  22.2192  22.2383  22.2697  22.2811
    22.3256  22.3417  22.3699  22.3826  22.4131  22.4264  22.4620  22.4737

          k = 0.0000 0.0000-0.6124 (  4398 PWs)   bands (ev):

   -61.1273 -61.0921 -61.0293 -60.9768 -60.9579 -60.9300 -60.8894 -60.8710
   -60.8435 -60.8225 -60.8113 -60.8006 -60.7757 -60.7504 -60.7468 -60.7159
   -60.6982 -60.6802 -60.6568 -60.6146 -60.5946 -60.5713 -60.5462 -60.4737
   -60.4475 -60.4182 -60.3945 -60.3843 -60.3302 -60.3207 -60.2975 -60.2748
   -23.3227 -23.1811 -22.9871 -22.7979 -22.6104 -22.4600 -22.3996 -22.2838
   -22.1818 -22.0612 -22.0061 -21.8949 -21.8747 -21.8510 -21.7657 -21.7350
   -21.6192 -21.5962 -21.4910 -21.4238 -21.3718 -21.3362 -21.2913 -21.1717
   -21.1589 -21.0965 -21.0044 -20.9635 -20.8661 -20.8164 -20.7382 -20.7234
   -20.6603 -20.6069 -20.5891 -20.5432 -20.5130 -20.4528 -20.4371 -20.3868
   -20.2984 -20.2672 -20.2318 -20.1921 -20.1480 -20.1216 -20.1068 -20.0830
   -20.0537 -20.0196 -19.9578 -19.9444 -19.9292 -19.9108 -19.8519 -19.8183
   -19.8114 -19.7459 -19.7275 -19.6475 -19.6195 -19.5600 -19.5435 -19.5319
   -19.4803 -19.4610 -19.4306 -19.3671 -19.3519 -19.3259 -19.3068 -19.2954
   -19.2200 -19.2015 -19.1612 -19.1196 -19.0696 -19.0378 -19.0060 -19.0030
   -18.9321 -18.8916 -18.8008 -18.7841 -18.7638 -18.6931 -18.6486 -18.6155
   -18.6140 -18.5542 -18.5022 -18.4243 -18.3641 -18.2816 -18.1410 -18.0296
    -4.3228  -4.2106  -3.7943  -3.7675  -3.6895  -3.6438  -3.5754  -3.4475
    -3.4053  -3.3358  -3.2791  -3.2571  -3.2124  -3.1780  -3.1501  -3.1420
    -3.1159  -3.0815  -3.0304  -2.9897  -2.9842  -2.9644  -2.9172  -2.8994
    -2.8113  -2.8080  -2.7982  -2.7723  -2.7597  -2.7249  -2.6970  -2.6827
    -2.6330  -2.6111  -2.5963  -2.5738  -2.5546  -2.5278  -2.5241  -2.5029
    -2.4842  -2.4633  -2.4413  -2.4302  -2.3971  -2.3763  -2.3722  -2.3415
    -2.3126  -2.2922  -2.2884  -2.2640  -2.2556  -2.2086  -2.1586  -2.1450
    -2.1202  -2.0626  -2.0046  -1.9867  -1.9053  -1.8800  -1.7978  -1.6861
     7.3691   7.4560   7.5440   7.5747   7.6461   7.7201   7.9201   7.9688
     8.2224   8.3578   8.3867   8.4400   8.4543   8.5170   8.5544   8.6077
     8.6543   8.7151   8.7173   8.7331   8.7562   8.8181   8.8737   8.8828
     8.9165   8.9229   8.9638   8.9868   9.0386   9.0680   9.0943   9.1196
     9.2351   9.3147   9.3444   9.3575   9.3991   9.4609   9.5007   9.5301
     9.5816   9.5970   9.6113   9.6560   9.7000   9.7394   9.7583   9.7909
     9.8095   9.8242   9.9102   9.9288  10.0012  10.0182  10.0645  10.2133
    10.6547  10.6780  10.7429  10.8017  10.8456  10.8491  10.9174  10.9540
    10.9560  11.0264  11.0375  11.0481  11.0801  11.1603  11.1679  11.2224
    11.2341  11.2804  11.3038  11.3349  11.3971  11.4085  11.4308  11.5175
    11.5685  11.6533  11.6790  11.6956  11.7273  11.8054  11.8333  11.8595
    11.8764  11.9434  11.9560  11.9752  12.0341  12.0488  12.0710  12.0869
    12.1312  12.1573  12.1786  12.2129  12.2470  12.2755  12.3003  12.3237
    12.3494  12.3747  12.4118  12.4277  12.4592  12.4662  12.5264  12.5485
    12.5927  12.6065  12.6595  12.6599  12.6929  12.7318  12.7483  12.7758
    12.7929  12.8159  12.8568  12.8750  12.9196  12.9459  12.9742  13.0056
    13.0140  13.0760  13.0926  13.1234  13.1337  13.1840  13.2389  13.2545
    13.2835  13.3109  13.3341  13.3895  13.4310  13.4394  13.4951  13.5456
    13.5668  13.5839  13.5982  13.6279  13.6839  13.7160  13.7265  13.7683
    13.7790  13.8216  13.8350  13.8498  13.8939  13.9158  13.9562  13.9900
    14.0113  14.0755  14.1081  14.1769  14.1809  14.2121  14.2318  14.2629
    14.2957  14.3788  14.4021  14.4423  14.4954  14.5449  14.5814  14.6039
    14.6663  14.7210  14.7484  14.7820  14.8269  14.8817  14.8904  14.9086
    14.9693  14.9969  15.0509  15.1151  15.6266  15.6443  15.6709  15.6926
    17.1286  17.1895  17.2311  17.4837  17.5459  17.5877  17.8943  18.1067
    18.2490  18.2767  18.4160  18.4815  18.6457  18.8743  18.9371  19.0555
    19.1639  19.2163  19.2528  19.3306  19.3448  19.4126  19.4573  19.5524
    19.5991  19.7054  19.7119  19.7664  19.7986  19.8257  19.8593  19.8958
    19.9130  19.9551  19.9939  20.0734  20.0799  20.1210  20.1303  20.1701
    20.2184  20.2290  20.2591  20.3142  20.3450  20.3900  20.4308  20.4745
    20.4838  20.5226  20.5881  20.6122  20.6169  20.6797  20.7457  20.7812
    20.7913  20.8642  20.8928  20.9101  20.9825  21.0053  21.0155  21.0576
    21.1003  21.1459  21.1700  21.2188  21.2272  21.2762  21.3512  21.3865
    21.4141  21.4512  21.5256  21.5373  21.5948  21.6556  21.7412  21.7678
    21.7951  21.8452  21.9082  21.9172  21.9762  22.0294  22.1175  22.1859
    22.2478  22.2811  22.3116  22.3467  22.3731  22.4172  22.4541  22.5055

          k = 0.0000-0.5774 0.2041 (  4398 PWs)   bands (ev):

   -61.1320 -61.0603 -61.0424 -60.9918 -60.9633 -60.8967 -60.8765 -60.8716
   -60.8412 -60.8277 -60.8069 -60.8012 -60.7856 -60.7545 -60.7426 -60.7127
   -60.6924 -60.6527 -60.6420 -60.6113 -60.5844 -60.5735 -60.5367 -60.4992
   -60.4623 -60.4557 -60.4008 -60.3766 -60.3660 -60.3200 -60.3015 -60.2584
   -23.1511 -23.1002 -22.9746 -22.7851 -22.6718 -22.5450 -22.3811 -22.2413
   -22.1891 -22.1052 -22.0810 -21.9951 -21.8962 -21.8337 -21.7784 -21.7315
   -21.7019 -21.5882 -21.5227 -21.4696 -21.3558 -21.3321 -21.2191 -21.1220
   -21.0948 -21.0482 -20.9520 -20.9335 -20.8230 -20.7989 -20.7275 -20.6905
   -20.6223 -20.5714 -20.5191 -20.4850 -20.4589 -20.4344 -20.3759 -20.3316
   -20.2955 -20.2695 -20.2444 -20.2315 -20.2034 -20.1818 -20.1297 -20.0790
   -20.0390 -20.0260 -19.9546 -19.9248 -19.9198 -19.8743 -19.8319 -19.8180
   -19.7582 -19.7168 -19.7015 -19.6828 -19.6572 -19.5828 -19.5718 -19.5463
   -19.5160 -19.4893 -19.4356 -19.4243 -19.3795 -19.3668 -19.3259 -19.2887
   -19.2718 -19.2049 -19.1733 -19.1247 -19.0646 -19.0432 -19.0224 -18.9680
   -18.9372 -18.8818 -18.8727 -18.8295 -18.7704 -18.7195 -18.6991 -18.6505
   -18.5623 -18.5308 -18.4864 -18.4676 -18.3905 -18.3074 -18.2329 -17.9744
    -4.3409  -4.1855  -3.7869  -3.7624  -3.6800  -3.6287  -3.6156  -3.5290
    -3.3807  -3.3320  -3.2849  -3.2791  -3.1899  -3.1613  -3.1428  -3.1006
    -3.0844  -3.0537  -3.0455  -3.0167  -2.9741  -2.9565  -2.9120  -2.8730
    -2.8347  -2.7999  -2.7897  -2.7742  -2.7406  -2.7333  -2.6902  -2.6696
    -2.6613  -2.6320  -2.6214  -2.5847  -2.5672  -2.5311  -2.5303  -2.5158
    -2.5041  -2.4856  -2.4491  -2.4303  -2.4192  -2.3898  -2.3706  -2.3536
    -2.2998  -2.2834  -2.2680  -2.2507  -2.2241  -2.1883  -2.1653  -2.1257
    -2.0731  -2.0346  -2.0211  -1.9732  -1.9554  -1.8763  -1.8174  -1.6925
     7.3674   7.4361   7.5046   7.6182   7.6594   7.7352   7.8853   7.9868
     8.3228   8.3627   8.3860   8.4398   8.4682   8.4950   8.5394   8.5604
     8.6138   8.6680   8.6811   8.7721   8.7879   8.8597   8.8784   8.8882
     8.9201   8.9662   8.9793   9.0001   9.0385   9.0722   9.1274   9.1355
     9.2336   9.2724   9.3043   9.3554   9.3997   9.4258   9.4594   9.5458
     9.5534   9.5953   9.6023   9.6425   9.6554   9.6887   9.7485   9.7956
     9.8076   9.8894   9.9138   9.9424   9.9528  10.0576  10.0824  10.1330
    10.6473  10.7297  10.7700  10.8152  10.8333  10.8775  10.9011  10.9591
    10.9778  11.0136  11.0528  11.0789  11.1100  11.1396  11.1601  11.1968
    11.2272  11.2649  11.2953  11.3485  11.3669  11.4393  11.4767  11.5250
    11.6092  11.6401  11.6933  11.7035  11.7518  11.7996  11.8377  11.8439
    11.8724  11.9326  11.9643  11.9677  11.9914  12.0254  12.0491  12.0859
    12.1379  12.1447  12.1637  12.2104  12.2345  12.2668  12.2964  12.3115
    12.3439  12.3879  12.3945  12.4388  12.4708  12.4904  12.5326  12.5532
    12.5859  12.5920  12.6190  12.6664  12.6833  12.7397  12.7705  12.7876
    12.8214  12.8555  12.8776  12.8927  12.9379  12.9735  12.9780  13.0201
    13.0415  13.0798  13.1251  13.1444  13.1572  13.2040  13.2233  13.2567
    13.3057  13.3451  13.3637  13.3760  13.4324  13.4655  13.4867  13.5260
    13.5569  13.5744  13.6105  13.6578  13.6893  13.7018  13.7268  13.7489
    13.7844  13.8073  13.8266  13.8493  13.8905  13.9309  13.9430  13.9609
    14.0081  14.0174  14.0479  14.0730  14.1153  14.2133  14.2278  14.2519
    14.3207  14.3606  14.3912  14.4279  14.4663  14.4759  14.5507  14.6110
    14.6584  14.6998  14.7418  14.7966  14.8168  14.8828  14.9263  14.9338
    14.9885  15.0336  15.0937  15.1131  15.6149  15.6534  15.6808  15.7057
    17.0852  17.1116  17.1367  17.5423  17.6098  17.7076  18.0671  18.1288
    18.2238  18.2635  18.3318  18.5971  18.6548  18.7710  18.9812  19.0337
    19.1607  19.1869  19.2664  19.3091  19.3907  19.4157  19.5677  19.5763
    19.6395  19.6977  19.7314  19.7665  19.8110  19.8447  19.8772  19.9331
    19.9347  19.9615  19.9954  20.0144  20.0433  20.1198  20.1272  20.1454
    20.2071  20.2510  20.2820  20.3266  20.3467  20.3578  20.3801  20.4452
    20.4910  20.5151  20.5284  20.5595  20.5978  20.6378  20.7027  20.7201
    20.7620  20.8372  20.8875  20.9242  20.9304  20.9856  21.0405  21.0784
    21.1041  21.1301  21.1442  21.1736  21.2294  21.2905  21.3125  21.3844
    21.3978  21.4924  21.5065  21.5477  21.5843  21.6478  21.7263  21.7820
    21.8520  21.8700  21.9353  22.0142  22.0523  22.0637  22.1091  22.1371
    22.1976  22.2209  22.2673  22.3262  22.3701  22.3979  22.4082  22.4560

          k = 0.0000-0.5774-0.4082 (  4360 PWs)   bands (ev):

   -61.0151 -60.9538 -60.9321 -60.8821 -60.8619 -60.8459 -60.8084 -60.7920
   -60.7463 -60.7450 -60.7287 -60.7180 -60.6838 -60.6680 -60.6603 -60.6377
   -60.6068 -60.5837 -60.5574 -60.5336 -60.5156 -60.5128 -60.4808 -60.4478
   -60.4248 -60.4126 -60.3733 -60.3185 -60.2870 -60.2663 -60.2072 -60.1193
   -23.3201 -22.8885 -22.6374 -22.5357 -22.3948 -22.2455 -22.1726 -22.0325
   -21.9767 -21.9604 -21.7630 -21.6716 -21.5911 -21.5294 -21.4969 -21.3813
   -21.3422 -21.2712 -21.1958 -21.1853 -21.1354 -21.0352 -21.0206 -20.8789
   -20.8235 -20.8104 -20.7753 -20.7104 -20.7004 -20.6197 -20.5995 -20.5581
   -20.4949 -20.4598 -20.3864 -20.3313 -20.3133 -20.2598 -20.2291 -20.1722
   -20.1389 -20.1166 -20.0462 -20.0153 -19.9633 -19.9409 -19.8796 -19.8564
   -19.7957 -19.7748 -19.7235 -19.6669 -19.6425 -19.5864 -19.5668 -19.5446
   -19.5103 -19.4879 -19.4766 -19.4404 -19.4216 -19.3479 -19.3139 -19.2926
   -19.2695 -19.2319 -19.2009 -19.1796 -19.1462 -19.1288 -19.1036 -19.0294
   -18.9882 -18.9503 -18.9363 -18.9075 -18.8461 -18.8181 -18.8020 -18.7881
   -18.7166 -18.6678 -18.6032 -18.5593 -18.5313 -18.4825 -18.4439 -18.4150
   -18.3696 -18.3231 -18.2678 -18.1401 -18.0823 -18.0312 -17.8936 -17.8911
    -4.2817  -4.1514  -3.8976  -3.8883  -3.8095  -3.7351  -3.3995  -3.3672
    -3.2841  -3.2574  -3.2482  -3.2213  -3.1553  -3.1442  -3.1140  -3.0840
    -3.0694  -3.0113  -2.9936  -2.9866  -2.9373  -2.9217  -2.8937  -2.8842
    -2.8622  -2.8390  -2.8051  -2.7759  -2.7576  -2.7340  -2.7017  -2.6956
    -2.6690  -2.6435  -2.6277  -2.5983  -2.5743  -2.5554  -2.5435  -2.5188
    -2.5023  -2.4726  -2.4483  -2.4148  -2.4015  -2.3883  -2.3570  -2.3362
    -2.3083  -2.2943  -2.2643  -2.2520  -2.2108  -2.1982  -2.1703  -2.1274
    -2.0600  -2.0277  -1.9922  -1.9448  -1.9171  -1.8722  -1.8056  -1.6774
     7.5475   7.6530   7.7179   7.7619   7.8121   7.8463   7.9521   8.0315
     8.0919   8.1907   8.1994   8.3118   8.4033   8.4462   8.4682   8.5073
     8.5709   8.6309   8.6867   8.7540   8.7868   8.8538   8.9312   8.9547
     9.0003   9.0359   9.0914   9.1109   9.1380   9.1851   9.1992   9.2319
     9.2697   9.2975   9.3538   9.4302   9.4853   9.5227   9.5498   9.5698
     9.6156   9.6247   9.6539   9.7002   9.7515   9.7873   9.8182   9.8524
     9.9100   9.9614  10.0299  10.0755  10.1096  10.1278  10.1860  10.1925
    10.2377  10.2971  10.3243  10.4303  10.4634  10.6203  10.7412  10.8945
    10.9890  11.0249  11.0732  11.2109  11.2535  11.2966  11.4277  11.4490
    11.4631  11.5060  11.5565  11.5629  11.5927  11.6167  11.6875  11.7439
    11.7537  11.7865  11.7920  11.8384  11.8740  11.9345  11.9417  11.9611
    12.0138  12.0339  12.0529  12.0799  12.1300  12.1345  12.1766  12.1932
    12.2279  12.2813  12.3152  12.3393  12.3748  12.3869  12.4108  12.4201
    12.4456  12.4831  12.5159  12.5457  12.6068  12.6235  12.6719  12.6938
    12.7001  12.7781  12.7858  12.8179  12.8620  12.8861  12.9123  12.9200
    12.9537  12.9785  13.0040  13.0370  13.0567  13.0611  13.0975  13.1465
    13.1522  13.1795  13.2080  13.2759  13.2857  13.3055  13.3349  13.3587
    13.4076  13.4323  13.4553  13.4755  13.5278  13.5404  13.5887  13.5972
    13.6273  13.6375  13.6822  13.6922  13.7257  13.7579  13.7682  13.8133
    13.8218  13.8674  13.9159  13.9442  13.9764  13.9824  14.0117  14.0478
    14.0909  14.1168  14.1686  14.2146  14.2254  14.2511  14.2988  14.3186
    14.3289  14.3541  14.4009  14.4277  14.4547  14.4907  14.5317  14.5715
    14.5907  14.5955  14.6154  14.6552  14.6836  14.7316  14.7642  14.8348
    15.0357  15.0936  15.2048  15.2551  15.2975  15.3397  15.3521  15.4448
    16.4070  16.9538  17.8416  17.8995  18.1556  18.2626  18.3225  18.3583
    18.5588  18.6232  18.6384  18.7931  18.8724  18.8952  18.9719  19.0175
    19.0512  19.1717  19.1880  19.2528  19.2888  19.3128  19.4092  19.4546
    19.5293  19.5538  19.6189  19.6990  19.7153  19.7594  19.8263  19.8937
    19.9593  20.0051  20.0343  20.1169  20.1864  20.2113  20.2529  20.2914
    20.2997  20.3777  20.4196  20.4516  20.4890  20.5106  20.5777  20.5993
    20.6353  20.6800  20.7158  20.7312  20.7523  20.8582  20.8656  20.8915
    20.9860  21.0062  21.0278  21.0487  21.0669  21.1029  21.1362  21.1782
    21.1882  21.2402  21.2795  21.2899  21.3557  21.3861  21.4197  21.4524
    21.4747  21.5412  21.5479  21.5904  21.6628  21.6739  21.7004  21.7323
    21.7701  21.8152  21.8394  21.9171  21.9381  22.0070  22.0485  22.0596
    22.0875  22.1352  22.1585  22.1726  22.2041  22.2524  22.2782  22.3202

          k = 0.5000 0.2887 0.2041 (  4398 PWs)   bands (ev):

   -61.1400 -61.0698 -61.0403 -60.9935 -60.9576 -60.9110 -60.8895 -60.8748
   -60.8714 -60.8331 -60.8142 -60.7883 -60.7753 -60.7567 -60.7380 -60.7253
   -60.7067 -60.6934 -60.6374 -60.6334 -60.5726 -60.5456 -60.5198 -60.5022
   -60.4516 -60.4361 -60.4104 -60.3795 -60.3394 -60.3200 -60.2686 -60.2573
   -23.3542 -23.2210 -23.0383 -22.9174 -22.7347 -22.6570 -22.5699 -22.3191
   -22.2262 -22.1256 -22.0526 -21.9469 -21.8441 -21.7675 -21.7065 -21.6256
   -21.6035 -21.5408 -21.4725 -21.4447 -21.4129 -21.3634 -21.2905 -21.2434
   -21.0530 -21.0296 -20.9938 -20.9181 -20.8648 -20.8125 -20.7737 -20.7615
   -20.6680 -20.6104 -20.5359 -20.5268 -20.4724 -20.4435 -20.4053 -20.3804
   -20.3430 -20.2865 -20.2400 -20.2036 -20.1847 -20.1347 -20.0924 -20.0587
   -20.0330 -19.9774 -19.9216 -19.9047 -19.8694 -19.8530 -19.8151 -19.7760
   -19.7179 -19.6677 -19.6351 -19.5961 -19.5850 -19.5522 -19.5267 -19.4941
   -19.4754 -19.4195 -19.3930 -19.3866 -19.3409 -19.3059 -19.2923 -19.2514
   -19.2364 -19.2007 -19.1401 -19.1313 -19.0985 -19.0354 -19.0302 -18.9844
   -18.9526 -18.9460 -18.8895 -18.8607 -18.7766 -18.7570 -18.7030 -18.6884
   -18.6483 -18.5798 -18.5190 -18.4264 -18.3459 -18.2427 -18.1238 -17.9038
    -4.3128  -4.2248  -3.8192  -3.7483  -3.6869  -3.6101  -3.5315  -3.4905
    -3.4062  -3.3721  -3.2832  -3.2393  -3.2306  -3.2138  -3.1821  -3.1290
    -3.0842  -3.0780  -3.0517  -3.0097  -2.9646  -2.9288  -2.9084  -2.8561
    -2.8358  -2.8112  -2.8015  -2.7584  -2.7404  -2.7313  -2.6930  -2.6808
    -2.6541  -2.6448  -2.6137  -2.5887  -2.5619  -2.5476  -2.5146  -2.4936
    -2.4696  -2.4447  -2.4282  -2.4162  -2.4032  -2.3921  -2.3630  -2.3408
    -2.3313  -2.3063  -2.2831  -2.2397  -2.2099  -2.2061  -2.1827  -2.1581
    -2.1136  -2.0946  -2.0187  -1.9455  -1.9107  -1.8951  -1.7925  -1.6841
     7.3277   7.3704   7.6064   7.6574   7.6893   7.7788   7.8983   7.9913
     8.2665   8.3439   8.3894   8.4465   8.4591   8.4763   8.5057   8.5324
     8.5904   8.6374   8.6663   8.7328   8.7817   8.8012   8.8462   8.9030
     8.9111   8.9386   8.9741   9.0092   9.0709   9.1028   9.1138   9.1299
     9.1754   9.2364   9.3663   9.3769   9.4253   9.4532   9.5277   9.5392
     9.5621   9.6160   9.6376   9.6660   9.6886   9.7300   9.7706   9.7951
     9.8364   9.8620   9.9240   9.9629   9.9899  10.0289  10.0662  10.2218
    10.6049  10.6400  10.6679  10.7558  10.8261  10.8496  10.9033  10.9080
    10.9636  11.0148  11.0227  11.0873  11.1083  11.1591  11.1934  11.2367
    11.2577  11.2937  11.3285  11.3662  11.3820  11.4619  11.5002  11.5730
    11.5916  11.6379  11.6591  11.6937  11.7475  11.7559  11.8171  11.8517
    11.8898  11.9358  11.9829  11.9942  12.0222  12.0552  12.0771  12.0903
    12.1146  12.1887  12.1914  12.2095  12.2489  12.2745  12.2854  12.3527
    12.3805  12.3892  12.4152  12.4358  12.4691  12.4812  12.5039  12.5258
    12.5738  12.5883  12.6111  12.6557  12.6652  12.6893  12.7292  12.7428
    12.7867  12.8378  12.8553  12.8636  12.8956  12.9265  12.9479  12.9760
    12.9996  13.0324  13.0794  13.0994  13.1427  13.1866  13.2165  13.2449
    13.2799  13.3453  13.3586  13.4017  13.4430  13.4678  13.5292  13.5603
    13.5938  13.6234  13.6397  13.6448  13.6727  13.6948  13.7153  13.7822
    13.7990  13.8497  13.8601  13.8918  13.9351  13.9527  13.9827  14.0214
    14.0642  14.0879  14.1424  14.1453  14.1934  14.2200  14.2661  14.2766
    14.3191  14.3263  14.3859  14.4213  14.4317  14.5506  14.5680  14.6077
    14.6235  14.6626  14.6862  14.7135  14.7713  14.8357  14.8617  14.9225
    14.9970  15.0224  15.0839  15.1574  15.6149  15.6391  15.6656  15.7173
    17.0640  17.1796  17.2551  17.4116  17.5109  17.5725  17.9343  18.1615
    18.1774  18.4603  18.5148  18.5907  18.7277  18.7681  18.8639  18.9413
    19.1109  19.2395  19.2613  19.3419  19.3520  19.3819  19.4673  19.5402
    19.5717  19.6413  19.7085  19.7565  19.8021  19.8462  19.8950  19.9195
    19.9547  19.9877  19.9968  20.0311  20.0673  20.1177  20.1318  20.1731
    20.2192  20.2566  20.2889  20.3057  20.3393  20.3586  20.3736  20.4427
    20.4670  20.4840  20.5346  20.5763  20.6287  20.6610  20.6902  20.7140
    20.7277  20.7631  20.8341  20.8474  20.8868  20.9964  21.0575  21.1163
    21.1534  21.2130  21.2535  21.2711  21.3196  21.3777  21.4043  21.4810
    21.5140  21.5389  21.5731  21.6159  21.6566  21.6804  21.7174  21.7457
    21.8437  21.8994  21.9775  22.0376  22.0691  22.0956  22.1412  22.1490
    22.2329  22.2754  22.2966  22.3152  22.3592  22.3719  22.3915  22.4536

          k =-0.5000 0.2887 0.2041 (  4398 PWs)   bands (ev):

   -61.1431 -61.0795 -61.0546 -60.9860 -60.9500 -60.9051 -60.8707 -60.8658
   -60.8445 -60.8127 -60.7979 -60.7883 -60.7748 -60.7439 -60.7230 -60.6940
   -60.6828 -60.6583 -60.6421 -60.6190 -60.6058 -60.5823 -60.5657 -60.5137
   -60.4954 -60.4655 -60.3854 -60.3574 -60.3490 -60.3038 -60.2880 -60.2858
   -23.3162 -23.1316 -23.0093 -22.9213 -22.5363 -22.4274 -22.3601 -22.2759
   -22.2028 -22.1430 -22.0641 -21.9722 -21.9471 -21.8085 -21.7683 -21.6782
   -21.6525 -21.4798 -21.4223 -21.3769 -21.3218 -21.2822 -21.2180 -21.1936
   -21.1046 -21.0358 -20.9415 -20.9187 -20.8594 -20.7634 -20.7504 -20.6953
   -20.6579 -20.6344 -20.6260 -20.5137 -20.4846 -20.4552 -20.4278 -20.3917
   -20.3755 -20.2987 -20.2809 -20.2141 -20.1897 -20.1591 -20.1242 -20.0632
   -20.0228 -20.0121 -19.9684 -19.9359 -19.9177 -19.8501 -19.8407 -19.8084
   -19.7755 -19.7572 -19.6825 -19.6609 -19.6486 -19.6225 -19.5681 -19.5334
   -19.5280 -19.4957 -19.4560 -19.4420 -19.3848 -19.3643 -19.3030 -19.2705
   -19.2497 -19.2165 -19.2007 -19.1779 -19.0821 -19.0562 -19.0171 -18.9597
   -18.9034 -18.8508 -18.8213 -18.8082 -18.7474 -18.7294 -18.6817 -18.6264
   -18.5002 -18.4923 -18.4066 -18.3720 -18.3644 -18.3393 -18.1571 -18.1225
    -4.3585  -4.1390  -3.8003  -3.7777  -3.7177  -3.6554  -3.6110  -3.5102
    -3.3365  -3.2600  -3.2464  -3.2137  -3.1993  -3.1729  -3.1622  -3.1287
    -3.1068  -3.0973  -3.0809  -3.0160  -3.0026  -2.9739  -2.9163  -2.8841
    -2.8437  -2.8086  -2.7752  -2.7621  -2.7429  -2.7320  -2.7111  -2.6910
    -2.6433  -2.6193  -2.6108  -2.5848  -2.5792  -2.5716  -2.5422  -2.5176
    -2.4620  -2.4373  -2.4237  -2.4077  -2.3984  -2.3845  -2.3724  -2.3563
    -2.3276  -2.3004  -2.2610  -2.2458  -2.2296  -2.1809  -2.1710  -2.1304
    -2.1054  -2.0637  -2.0106  -1.9645  -1.9104  -1.8703  -1.8406  -1.6940
     7.3775   7.4632   7.4957   7.5513   7.6388   7.7400   7.9199   8.1547
     8.2542   8.3347   8.3845   8.4046   8.4404   8.4740   8.5364   8.5471
     8.6425   8.6666   8.7172   8.7385   8.7811   8.8182   8.8620   8.8805
     8.9293   8.9418   8.9765   8.9991   9.0371   9.0968   9.1156   9.1446
     9.2315   9.2946   9.3075   9.3725   9.4230   9.4398   9.4706   9.4841
     9.5447   9.5621   9.5903   9.6423   9.6630   9.7288   9.7384   9.7586
     9.8201   9.8512   9.9268   9.9947  10.0400  10.0605  10.1409  10.2251
    10.6001  10.6845  10.7263  10.7712  10.8457  10.8907  10.9264  10.9483
    10.9933  11.0210  11.0536  11.0977  11.1227  11.1443  11.1947  11.2010
    11.2343  11.2879  11.2976  11.3370  11.4130  11.4328  11.4571  11.5363
    11.5802  11.6299  11.6483  11.6954  11.7174  11.7521  11.7627  11.7838
    11.8280  11.8720  11.8959  11.9674  11.9869  12.0488  12.0634  12.0914
    12.1175  12.1577  12.1954  12.2641  12.2765  12.3111  12.3329  12.3593
    12.3855  12.3995  12.4036  12.4473  12.4702  12.5189  12.5321  12.5569
    12.5925  12.6034  12.6539  12.6735  12.6862  12.7286  12.7473  12.7633
    12.7916  12.8379  12.8569  12.8853  12.9070  12.9437  12.9675  12.9841
    13.0426  13.0767  13.0834  13.1239  13.1593  13.2020  13.2228  13.2673
    13.2987  13.3185  13.3451  13.4009  13.4441  13.4516  13.5064  13.5107
    13.5369  13.5803  13.5913  13.6191  13.6371  13.6935  13.7340  13.7558
    13.7728  13.8589  13.8624  13.8869  13.9253  13.9428  13.9577  14.0090
    14.0368  14.0408  14.0709  14.1009  14.1302  14.1976  14.2149  14.3144
    14.3260  14.3739  14.3902  14.4644  14.4988  14.5132  14.5612  14.5641
    14.6377  14.6543  14.6858  14.7625  14.8107  14.8774  14.9066  14.9281
    14.9655  15.0460  15.1012  15.2001  15.5990  15.6598  15.6821  15.7033
    16.9471  17.0673  17.0843  17.6483  17.6684  17.8074  18.0159  18.0569
    18.2443  18.3606  18.4377  18.4974  18.6594  18.8733  18.9891  19.0994
    19.1571  19.1787  19.2601  19.3363  19.4407  19.5002  19.5183  19.5412
    19.5834  19.6365  19.6532  19.7098  19.7217  19.7741  19.8256  19.9032
    19.9186  19.9439  19.9630  19.9901  20.0119  20.0717  20.1196  20.1646
    20.1792  20.2362  20.2709  20.2990  20.3389  20.3742  20.4413  20.4548
    20.4827  20.4931  20.5237  20.5884  20.6065  20.6464  20.6995  20.7052
    20.7213  20.7770  20.8287  20.8817  20.8910  21.0029  21.0302  21.0434
    21.1426  21.1745  21.2092  21.2145  21.2641  21.3010  21.3623  21.4012
    21.4740  21.4828  21.5353  21.5933  21.6080  21.6801  21.7689  21.7811
    21.8388  21.8782  21.9168  21.9484  22.0566  22.1096  22.1710  22.1869
    22.2414  22.2584  22.2906  22.3393  22.3692  22.4058  22.4296  22.4464

          k = 0.5000 0.2887-0.4082 (  4360 PWs)   bands (ev):

   -60.9638 -60.9525 -60.9276 -60.9076 -60.8754 -60.8603 -60.8418 -60.8254
   -60.7669 -60.7423 -60.7282 -60.6949 -60.6825 -60.6484 -60.6089 -60.5964
   -60.5908 -60.5700 -60.5634 -60.5508 -60.5134 -60.4971 -60.4945 -60.4675
   -60.4417 -60.3830 -60.3632 -60.3233 -60.2934 -60.2490 -60.2292 -60.1878
   -23.0616 -22.8616 -22.5766 -22.3995 -22.2924 -22.2421 -22.1960 -22.1280
   -22.0710 -21.9487 -21.8031 -21.7330 -21.6786 -21.5957 -21.5671 -21.4430
   -21.4191 -21.3193 -21.2523 -21.2022 -21.1236 -21.1179 -21.0952 -20.9981
   -20.9365 -20.9128 -20.8304 -20.8156 -20.7731 -20.7163 -20.6380 -20.5679
   -20.4954 -20.4601 -20.3792 -20.3307 -20.2758 -20.2068 -20.1932 -20.1671
   -20.0934 -20.0667 -20.0221 -19.9959 -19.9531 -19.9202 -19.8720 -19.8226
   -19.7441 -19.7199 -19.6957 -19.6606 -19.6197 -19.5791 -19.5469 -19.5055
   -19.4752 -19.4620 -19.4351 -19.4172 -19.3857 -19.3555 -19.3111 -19.2613
   -19.2301 -19.2215 -19.2081 -19.1761 -19.1472 -19.1057 -19.0701 -19.0428
   -19.0144 -18.9541 -18.8840 -18.8758 -18.8281 -18.7829 -18.7782 -18.7286
   -18.6583 -18.5861 -18.5782 -18.5727 -18.4852 -18.4522 -18.3697 -18.3480
   -18.3394 -18.2981 -18.2917 -18.2067 -18.1828 -18.1077 -18.0722 -18.0077
    -4.2644  -4.1564  -3.9371  -3.8710  -3.8343  -3.7122  -3.3825  -3.3472
    -3.2808  -3.2664  -3.2466  -3.2151  -3.1703  -3.1573  -3.1335  -3.0855
    -3.0630  -3.0148  -2.9842  -2.9656  -2.9582  -2.9394  -2.9109  -2.8800
    -2.8510  -2.8385  -2.8098  -2.8079  -2.7831  -2.7542  -2.6991  -2.6847
    -2.6696  -2.6410  -2.6006  -2.5851  -2.5734  -2.5452  -2.5410  -2.5110
    -2.4734  -2.4721  -2.4510  -2.4481  -2.4301  -2.4177  -2.3604  -2.3404
    -2.3191  -2.3056  -2.2650  -2.2389  -2.2207  -2.1833  -2.1617  -2.0878
    -2.0781  -2.0553  -2.0389  -1.9151  -1.8538  -1.8378  -1.8097  -1.6822
     7.5372   7.6681   7.7281   7.7760   7.8029   7.8082   8.0096   8.0737
     8.1683   8.2386   8.2519   8.2761   8.3191   8.4084   8.4848   8.5533
     8.5698   8.5932   8.6983   8.7525   8.7877   8.8171   8.8700   8.8932
     8.9573   8.9837   9.0242   9.0623   9.1665   9.1862   9.2121   9.2629
     9.3022   9.3382   9.3874   9.4228   9.4526   9.4953   9.5374   9.5618
     9.6026   9.6476   9.6492   9.6904   9.7734   9.8376   9.8701   9.8778
     9.8948   9.9200   9.9556  10.0205  10.0509  10.0746  10.1542  10.1984
    10.2484  10.3079  10.3362  10.3861  10.4204  10.6286  10.6774  10.8953
    10.9935  11.0611  11.0799  11.2020  11.2693  11.3133  11.3551  11.3941
    11.4604  11.4943  11.5765  11.6198  11.6350  11.6750  11.7196  11.7396
    11.8093  11.8306  11.8594  11.8755  11.9202  12.0006  12.0095  12.0209
    12.0306  12.0606  12.0705  12.1103  12.1532  12.1855  12.1997  12.2244
    12.2394  12.2645  12.2914  12.3229  12.3747  12.3978  12.4163  12.4440
    12.4580  12.5018  12.5070  12.5569  12.5912  12.6110  12.6447  12.6854
    12.7002  12.7356  12.7567  12.7927  12.8077  12.8223  12.8464  12.8887
    12.9546  12.9622  12.9732  13.0169  13.0523  13.0977  13.1315  13.1469
    13.1592  13.1837  13.2030  13.2573  13.2765  13.3098  13.3282  13.3650
    13.3817  13.4240  13.4624  13.4838  13.4986  13.5119  13.5363  13.6044
    13.6161  13.6422  13.6688  13.7062  13.7265  13.7393  13.7747  13.7947
    13.8307  13.8831  13.9255  13.9334  13.9566  13.9950  14.0143  14.0457
    14.1100  14.1165  14.1587  14.1934  14.1999  14.2159  14.2561  14.2847
    14.3203  14.3382  14.3824  14.4502  14.4702  14.4870  14.5476  14.5614
    14.5784  14.5951  14.6279  14.6629  14.7077  14.7457  14.7859  14.8297
    15.0101  15.1291  15.2317  15.2524  15.2781  15.3254  15.3697  15.4519
    16.5922  16.8294  17.8562  17.9344  18.2072  18.2378  18.3054  18.5257
    18.5638  18.6320  18.6455  18.6870  18.7857  18.8152  18.9327  18.9970
    19.0262  19.1555  19.2234  19.2632  19.3097  19.3765  19.4711  19.4830
    19.5594  19.6293  19.6626  19.7010  19.7655  19.8356  19.8695  19.9123
    19.9340  19.9832  20.0156  20.0510  20.0993  20.1736  20.2161  20.2464
    20.2769  20.3773  20.4078  20.4463  20.4946  20.5288  20.5571  20.5799
    20.5929  20.6086  20.6367  20.6898  20.7295  20.7953  20.8197  20.9008
    20.9519  20.9958  21.0348  21.0966  21.1060  21.1263  21.1742  21.1975
    21.2236  21.2440  21.2652  21.3533  21.3605  21.4220  21.4625  21.4894
    21.5307  21.5696  21.6289  21.6448  21.6818  21.7847  21.8007  21.8064
    21.8627  21.8795  21.9385  21.9453  21.9811  22.0446  22.0759  22.0950
    22.1233  22.1467  22.2203  22.2404  22.2862  22.3127  22.3245  22.3428

          k =-0.5000 0.2887-0.4082 (  4360 PWs)   bands (ev):

   -60.9494 -60.9320 -60.9154 -60.8861 -60.8785 -60.8412 -60.8331 -60.7996
   -60.7843 -60.7332 -60.7296 -60.7194 -60.7011 -60.6608 -60.6350 -60.6268
   -60.6168 -60.5814 -60.5478 -60.5359 -60.5073 -60.4916 -60.4826 -60.4474
   -60.4056 -60.3999 -60.3369 -60.3222 -60.3031 -60.2764 -60.2378 -60.2067
   -23.1254 -22.7215 -22.4702 -22.4610 -22.3628 -22.2744 -22.1251 -22.0912
   -21.9354 -21.8642 -21.7742 -21.6541 -21.6170 -21.5747 -21.5169 -21.4763
   -21.4238 -21.3820 -21.3284 -21.2250 -21.1683 -21.1270 -21.0821 -21.0627
   -20.9227 -20.9071 -20.8496 -20.8058 -20.7554 -20.7149 -20.5683 -20.5427
   -20.5070 -20.4493 -20.4051 -20.3730 -20.3091 -20.2391 -20.1818 -20.1068
   -20.0865 -20.0395 -20.0080 -19.9632 -19.9378 -19.8896 -19.8669 -19.8349
   -19.8149 -19.7374 -19.6723 -19.6602 -19.6106 -19.5903 -19.5368 -19.5168
   -19.4949 -19.4534 -19.4478 -19.4278 -19.3888 -19.3723 -19.3205 -19.3159
   -19.2856 -19.2055 -19.1986 -19.1581 -19.1107 -19.0841 -19.0651 -19.0265
   -18.9710 -18.9643 -18.9475 -18.8934 -18.8463 -18.8089 -18.7843 -18.7312
   -18.6802 -18.6309 -18.6054 -18.5379 -18.4951 -18.4802 -18.4432 -18.4246
   -18.3020 -18.2752 -18.2517 -18.2235 -18.1544 -18.1257 -18.0948 -17.9994
    -4.2781  -4.1375  -3.9296  -3.8582  -3.8209  -3.7726  -3.4145  -3.3383
    -3.2771  -3.2538  -3.2288  -3.1900  -3.1486  -3.1263  -3.1107  -3.0966
    -3.0547  -3.0295  -2.9950  -2.9730  -2.9618  -2.9384  -2.9224  -2.9024
    -2.8867  -2.8569  -2.8199  -2.7823  -2.7582  -2.7371  -2.7134  -2.6950
    -2.6705  -2.6571  -2.6394  -2.5898  -2.5716  -2.5292  -2.5080  -2.4956
    -2.4865  -2.4711  -2.4646  -2.4339  -2.4181  -2.3808  -2.3699  -2.3298
    -2.3203  -2.2954  -2.2763  -2.2407  -2.2299  -2.2041  -2.1173  -2.0947
    -2.0690  -2.0332  -2.0084  -1.9469  -1.8986  -1.8865  -1.7866  -1.6777
     7.5785   7.6188   7.7274   7.7766   7.8482   7.8955   7.9144   7.9827
     8.0614   8.1768   8.2131   8.3291   8.3991   8.4854   8.5358   8.5936
     8.5991   8.6209   8.6820   8.7117   8.7828   8.8149   8.8913   8.9436
     8.9903   9.0344   9.0595   9.0846   9.1122   9.2070   9.2389   9.2441
     9.2878   9.3281   9.3715   9.4069   9.4113   9.4605   9.5280   9.5727
     9.5936   9.6310   9.6581   9.6882   9.7250   9.7937   9.8353   9.8378
     9.8840   9.9706   9.9821  10.0429  10.0679  10.1013  10.1235  10.1852
    10.2539  10.2579  10.3397  10.3868  10.3998  10.5504  10.8809  10.9748
    11.0128  11.0501  11.1325  11.2311  11.2779  11.3223  11.3701  11.4121
    11.4793  11.5000  11.5651  11.6007  11.6285  11.6468  11.6699  11.7451
    11.7760  11.7849  11.8556  11.8682  11.9369  11.9688  11.9712  11.9871
    12.0060  12.0396  12.0805  12.1082  12.1205  12.1643  12.1897  12.1972
    12.2329  12.2598  12.2751  12.3012  12.3492  12.3608  12.3901  12.4409
    12.4589  12.4830  12.5239  12.5598  12.5898  12.6222  12.6487  12.6766
    12.7084  12.7595  12.7683  12.8012  12.8334  12.8493  12.8889  12.9005
    12.9529  12.9794  13.0020  13.0221  13.0449  13.0668  13.1019  13.1344
    13.1757  13.1942  13.2330  13.2394  13.3116  13.3303  13.3531  13.3774
    13.3865  13.4235  13.4526  13.4890  13.5189  13.5495  13.5683  13.5989
    13.6388  13.6430  13.6516  13.6729  13.7028  13.7466  13.7831  13.8082
    13.8240  13.8528  13.8980  13.9154  13.9527  13.9859  14.0329  14.0379
    14.1195  14.1379  14.1695  14.2166  14.2222  14.2423  14.2546  14.3040
    14.3196  14.3505  14.3872  14.4299  14.4631  14.4784  14.5017  14.5557
    14.5678  14.6129  14.6334  14.6477  14.6854  14.7425  14.7741  14.8153
    15.0261  15.1716  15.1895  15.2721  15.2859  15.3611  15.3805  15.4087
    16.4664  16.9768  17.8286  17.8525  18.2978  18.3154  18.3300  18.4708
    18.5651  18.6282  18.7145  18.7901  18.8034  18.8903  18.9466  19.0256
    19.0521  19.0823  19.1461  19.1720  19.2682  19.3035  19.4043  19.5511
    19.5684  19.5737  19.6527  19.6892  19.7415  19.7876  19.8610  19.9356
    19.9583  20.0156  20.0636  20.0818  20.1310  20.1675  20.1790  20.2091
    20.2870  20.3119  20.3762  20.4512  20.4589  20.5046  20.5229  20.5730
    20.6494  20.6861  20.7094  20.7486  20.7563  20.7821  20.8486  20.8884
    20.9210  20.9499  21.0120  21.0399  21.0667  21.0829  21.1426  21.1692
    21.2299  21.2664  21.2920  21.3319  21.3738  21.4155  21.4412  21.4717
    21.5208  21.5393  21.5916  21.6358  21.6853  21.7177  21.7389  21.7953
    21.8190  21.8901  21.9036  21.9747  21.9856  22.0284  22.0785  22.1137
    22.1312  22.1815  22.2312  22.2629  22.2888  22.3168  22.3528  22.3729

     the Fermi energy is    19.0061 ev

!    total energy              =   -8542.16179383 Ry
     total all-electron energy =    -76787.386964 Ry
     estimated scf accuracy    <          7.6E-09 Ry
     smearing contrib. (-TS)   =      -0.00501781 Ry
     internal energy E=F+TS    =   -8542.15677602 Ry

     The total energy is F=E-TS. E is the sum of the following terms:
     one-electron contribution =   -1080.33735389 Ry
     hartree contribution      =     961.88770468 Ry
     xc contribution           =    -963.39475392 Ry
     ewald contribution        =   -3776.99859525 Ry
     one-center paw contrib.   =   -3683.31377764 Ry

     convergence has been achieved in  17 iterations

     negative rho (up, down):  5.215E-04 0.000E+00

     Forces acting on atoms (cartesian axes, Ry/au):

     atom    1 type  3   force =     0.10935282    0.02824176   -0.01430402
     atom    2 type  2   force =    -0.26417158   -0.00824058    0.01243749
     atom    3 type  3   force =    -0.00054168   -0.05992599   -0.12965426
     atom    4 type  2   force =    -0.00839016   -0.14100698    0.20597657
     atom    5 type  1   force =     0.00266736    0.00404786   -0.00073073
     atom    6 type  2   force =     0.11941769   -0.07953597   -0.18513751
     atom    7 type  3   force =     0.00641030    0.09014434    0.09107457
     atom    8 type  2   force =    -0.12613731    0.07615817    0.20527798
     atom    9 type  3   force =     0.00401306   -0.08542402    0.04941580
     atom   10 type  2   force =    -0.01885075    0.15941186    0.08985693
     atom   11 type  3   force =    -0.02362990    0.00438542   -0.07370403
     atom   12 type  2   force =    -0.00411281    0.14357134    0.10744784
     atom   13 type  1   force =     0.00719275   -0.01498357    0.00274182
     atom   14 type  2   force =    -0.10645210    0.08062165   -0.08881273
     atom   15 type  3   force =     0.02303871   -0.07164436    0.08021309
     atom   16 type  2   force =    -0.13199051    0.08696906   -0.10696201
     atom   17 type  3   force =    -0.01527420   -0.06108526    0.05007110
     atom   18 type  2   force =    -0.12185005    0.09140258   -0.10336935
     atom   19 type  3   force =     0.02920243    0.00143623   -0.01429147
     atom   20 type  2   force =    -0.13404214    0.07573681    0.19702007
     atom   21 type  3   force =    -0.00600059    0.01921642   -0.06692982
     atom   22 type  2   force =    -0.11431218    0.07107219    0.19937750
     atom   23 type  1   force =     0.00993560    0.01012928   -0.00894080
     atom   24 type  2   force =    -0.00780479    0.15413839   -0.19152408
     atom   25 type  1   force =     0.00591881   -0.00940768   -0.02330598
     atom   26 type  2   force =    -0.13286400    0.08475694   -0.10443824
     atom   27 type  3   force =     0.07002817    0.00195294   -0.00776460
     atom   28 type  2   force =    -0.24788477    0.14616987    0.10213378
     atom   29 type  3   force =     0.07604969   -0.03476363   -0.13565754
     atom   30 type  2   force =    -0.01366640   -0.00623421    0.01863651
     atom   31 type  1   force =    -0.00681924   -0.00122056    0.01083888
     atom   32 type  2   force =     0.00463458   -0.15067087    0.18671693
     atom   33 type  3   force =    -0.13683901    0.10053297    0.02175553
     atom   34 type  2   force =     0.00968196   -0.01215529    0.00709204
     atom   35 type  3   force =    -0.08807418   -0.00212387   -0.03108727
     atom   36 type  2   force =     0.00751207   -0.00227283    0.29460056
     atom   37 type  1   force =     0.00330232    0.01573907   -0.00171164
     atom   38 type  2   force =     0.00560935   -0.01927774   -0.29867622
     atom   39 type  3   force =    -0.07441133    0.15305905    0.13466223
     atom   40 type  2   force =     0.00022434   -0.01157898   -0.01732729
     atom   41 type  3   force =    -0.07313028    0.00963401    0.03843758
     atom   42 type  2   force =     0.12288686    0.08454500   -0.10120782
     atom   43 type  3   force =    -0.00978925    0.01734867   -0.09202351
     atom   44 type  2   force =     0.00416175   -0.13936790    0.19693742
     atom   45 type  1   force =    -0.01168735   -0.00414486   -0.00053654
     atom   46 type  2   force =     0.11511711    0.07704992   -0.09904736
     atom   47 type  3   force =    -0.04909891   -0.06229468    0.09938286
     atom   48 type  2   force =    -0.11471964    0.08527362   -0.12020470
     atom   49 type  1   force =     0.00989884    0.01449418    0.00711646
     atom   50 type  2   force =     0.00412582    0.00451198   -0.31408432
     atom   51 type  3   force =    -0.04368650    0.03576082    0.00894392
     atom   52 type  2   force =     0.12367942   -0.07654563    0.09554579
     atom   53 type  1   force =    -0.01007617   -0.01147364   -0.00905912
     atom   54 type  2   force =    -0.11741121   -0.05727528    0.10775492
     atom   55 type  3   force =     0.02255705   -0.01580024    0.02586785
     atom   56 type  2   force =     0.11567403    0.21426781    0.00434914
     atom   57 type  1   force =    -0.00721246   -0.02095560   -0.01027434
     atom   58 type  2   force =    -0.00772577   -0.15831124   -0.10868816
     atom   59 type  3   force =    -0.13000056    0.13012317    0.02340778
     atom   60 type  2   force =     0.00521356    0.13589903    0.11391469
     atom   61 type  3   force =     0.01178266   -0.01108702   -0.02005726
     atom   62 type  2   force =     0.00675004    0.00858716    0.01600537
     atom   63 type  1   force =    -0.00322734    0.00477085    0.02100383
     atom   64 type  2   force =    -0.00242889   -0.29645784    0.08975666
     atom   65 type  1   force =     0.01367224   -0.01236559    0.00003816
     atom   66 type  2   force =     0.12466363   -0.22328819    0.00847915
     atom   67 type  1   force =    -0.00427675   -0.01335454   -0.00290835
     atom   68 type  2   force =     0.00544448   -0.14894228    0.20335298
     atom   69 type  1   force =     0.01307231   -0.00706973   -0.00337502
     atom   70 type  2   force =     0.00598618   -0.15071115   -0.10252311
     atom   71 type  1   force =     0.02067216   -0.01584695   -0.00254193
     atom   72 type  2   force =     0.25289895   -0.15569062   -0.09973297
     atom   73 type  3   force =     0.01431231    0.06237852   -0.02250834
     atom   74 type  2   force =     0.01866297    0.13856981   -0.18807724
     atom   75 type  3   force =    -0.01166131    0.04484620    0.00611784
     atom   76 type  2   force =     0.01158819    0.13052239    0.09745278
     atom   77 type  3   force =    -0.01625968   -0.00973614   -0.03117906
     atom   78 type  2   force =     0.11281882    0.06568587   -0.11403069
     atom   79 type  1   force =    -0.00219824   -0.00849790    0.00234224
     atom   80 type  2   force =     0.01789754    0.00348107   -0.00756888
     atom   81 type  1   force =     0.00803485    0.00958146   -0.00032474
     atom   82 type  2   force =     0.12955538   -0.06645342   -0.20223787
     atom   83 type  1   force =     0.01330573    0.01836295    0.00600597
     atom   84 type  2   force =     0.13644578   -0.22754065   -0.01812092
     atom   85 type  1   force =     0.00198618   -0.01179693   -0.01000987
     atom   86 type  2   force =     0.00800166    0.00185020   -0.00602452
     atom   87 type  3   force =    -0.01616294   -0.03332733   -0.01551959
     atom   88 type  2   force =     0.00309316    0.15232482    0.10731846
     atom   89 type  1   force =     0.00483996    0.00005414   -0.01122825
     atom   90 type  2   force =     0.25542814   -0.15629299   -0.11253414
     atom   91 type  1   force =     0.00325787   -0.01417844   -0.02498202
     atom   92 type  2   force =     0.13334099    0.07178883   -0.08693969
     atom   93 type  3   force =    -0.07744370   -0.05831069    0.03697543
     atom   94 type  2   force =     0.00650918    0.00914944   -0.00691342
     atom   95 type  1   force =     0.02726141    0.00336136    0.01512408
     atom   96 type  2   force =     0.12832764   -0.21853080   -0.00892641
     atom   97 type  1   force =     0.00325252    0.00215306    0.01645877
     atom   98 type  2   force =     0.12762525   -0.21549521    0.00903798
     atom   99 type  1   force =    -0.01292636    0.00622174    0.01009505
     atom  100 type  2   force =    -0.01035492   -0.27633446    0.10097115
     atom  101 type  1   force =    -0.01543343   -0.01447397    0.00064612
     atom  102 type  2   force =    -0.12470348   -0.08075426    0.10880774
     atom  103 type  3   force =     0.10928135    0.06362312   -0.03721265
     atom  104 type  2   force =    -0.12298813   -0.08220973    0.10363039
     atom  105 type  1   force =    -0.00931240   -0.00968280   -0.00638764
     atom  106 type  2   force =    -0.12228490    0.07891980   -0.10346032
     atom  107 type  3   force =     0.07571860   -0.03484511   -0.01085754
     atom  108 type  2   force =    -0.00312780    0.27873893   -0.08513145
     atom  109 type  3   force =    -0.00447786   -0.04131174    0.02486836
     atom  110 type  2   force =    -0.11510677    0.07948692   -0.11366730
     atom  111 type  3   force =    -0.01029744   -0.06625025    0.01425466
     atom  112 type  2   force =     0.23708749    0.13292588    0.09022454
     atom  113 type  3   force =     0.04772405   -0.07601369    0.02513088
     atom  114 type  2   force =    -0.00291908    0.14588277    0.09455899
     atom  115 type  1   force =    -0.01786256    0.01150707    0.00923933
     atom  116 type  2   force =    -0.11706941   -0.19490028   -0.01212983
     atom  117 type  1   force =     0.01134018   -0.00554825   -0.00378686
     atom  118 type  2   force =     0.23566147    0.00818758    0.00110037
     atom  119 type  1   force =    -0.00008505    0.01841415    0.00099194
     atom  120 type  2   force =    -0.10643227    0.07068634   -0.09038645
     atom  121 type  1   force =     0.00048963    0.01222400    0.00125382
     atom  122 type  2   force =    -0.12131639    0.06110842   -0.10694326
     atom  123 type  3   force =     0.07263504    0.00827559    0.01221941
     atom  124 type  2   force =     0.11141004    0.20140519    0.00279928
     atom  125 type  1   force =    -0.00441994    0.01110118    0.01512543
     atom  126 type  2   force =    -0.00354144   -0.00339027   -0.00352410
     atom  127 type  1   force =    -0.01232873   -0.00433492   -0.00002984
     atom  128 type  2   force =    -0.11003752   -0.06123357    0.09084418

     Total force =     1.817452     Total SCF correction =     0.000298


     Computing stress (Cartesian axis) and pressure


     negative rho (up, down):  5.215E-04 0.000E+00
          total   stress  (Ry/bohr**3)                   (kbar)     P=   -10615.05
  -0.07216909  -0.00001331  -0.00002196       -10616.44       -1.96       -3.23
  -0.00001331  -0.07214364   0.00001918           -1.96   -10612.70        2.82
  -0.00002196   0.00001918  -0.07216621           -3.23        2.82   -10616.02


     Writing all to output data dir ../output/TiAlN.save/
 
     init_run     :      5.17s CPU      5.37s WALL (       1 calls)
     electrons    :    275.44s CPU    281.81s WALL (       1 calls)
     forces       :      2.32s CPU      2.35s WALL (       1 calls)
     stress       :     19.51s CPU     19.61s WALL (       1 calls)

     Called by init_run:
     wfcinit      :      4.26s CPU      4.39s WALL (       1 calls)
     potinit      :      0.78s CPU      0.80s WALL (       1 calls)
     hinit0       :      0.07s CPU      0.10s WALL (       1 calls)

     Called by electrons:
     c_bands      :    248.25s CPU    254.10s WALL (      17 calls)
     sum_band     :     13.33s CPU     13.57s WALL (      17 calls)
     v_of_rho     :      0.12s CPU      0.13s WALL (      18 calls)
     newd         :      0.44s CPU      0.48s WALL (      18 calls)
     PAW_pot      :     13.90s CPU     14.07s WALL (      18 calls)
     mix_rho      :      0.17s CPU      0.18s WALL (      17 calls)

     Called by c_bands:
     init_us_2    :      0.85s CPU      0.86s WALL (     148 calls)
     init_us_2:cp :      0.85s CPU      0.86s WALL (     148 calls)
     cegterg      :    236.23s CPU    242.00s WALL (      68 calls)

     Called by *egterg:
     cdiaghg      :    127.12s CPU    129.71s WALL (     390 calls)
     h_psi        :     60.34s CPU     61.74s WALL (     394 calls)
     s_psi        :     16.31s CPU     16.73s WALL (     394 calls)
     g_psi        :      0.14s CPU      0.14s WALL (     322 calls)

     Called by h_psi:
     h_psi:calbec :     16.50s CPU     16.58s WALL (     394 calls)
     vloc_psi     :     27.29s CPU     27.96s WALL (     394 calls)
     add_vuspsi   :     16.30s CPU     16.89s WALL (     394 calls)

     General routines
     calbec       :     24.99s CPU     25.11s WALL (     482 calls)
     fft          :      0.08s CPU      0.10s WALL (     223 calls)
     ffts         :      0.09s CPU      0.09s WALL (     295 calls)
     fftw         :     29.35s CPU     30.06s WALL (  201116 calls)
 
     Parallel routines
 
     PWSCF        :   5m 2.77s CPU   5m10.24s WALL

 
   This run was terminated on:  12:13:24  29Apr2026            

=------------------------------------------------------------------------------=
   JOB DONE.
=------------------------------------------------------------------------------=
