
     Program PWSCF v.7.1 starts on 13May2026 at  9:54:39 

     This program is part of the open-source Quantum ESPRESSO suite
     for quantum simulation of materials; please cite
         "P. Giannozzi et al., J. Phys.:Condens. Matter 21 395502 (2009);
         "P. Giannozzi et al., J. Phys.:Condens. Matter 29 465901 (2017);
         "P. Giannozzi et al., J. Chem. Phys. 152 154105 (2020);
          URL http://www.quantum-espresso.org", 
     in publications or presentations arising from this work. More details at
     http://www.quantum-espresso.org/quote

     Parallel version (MPI & OpenMP), running on      32 processor cores
     Number of MPI processes:                32
     Threads/MPI process:                     1

     MPI processes distributed on     1 nodes
     90968 MiB available memory on the printing compute node when the environment starts
 
     Reading input from TiAlN_x0875finalrelaxedresult8264325.in

     Current dimensions of program PWSCF are:
     Max number of different atomic species (ntypx) = 10
     Max number of k-points (npk) = 150000
     Max angular momentum in pseudopotentials (lmaxx) =  4
     file Al.pbe-n-kjpaw_psl.1.0.0.UPF: wavefunction(s)  3S 3P renormalized
     file N.pbe-n-kjpaw_psl.1.0.0.UPF: wavefunction(s)  2S renormalized
     file Ti.pbe-spn-kjpaw_psl.1.0.0.UPF: wavefunction(s)  3S 3P 3D renormalized
 
     K-points division:     npool     =       4
     R & G space division:  proc/nbgrp/npool/nimage =       8
     Subspace diagonalization in iterative solution of the eigenvalue problem:
     one sub-group per band group will be used
     scalapack distributed-memory algorithm (size of sub-group:  2*  2 procs)

 
     Parallelization info
     --------------------
     sticks:   dense  smooth     PW     G-vecs:    dense   smooth      PW
     Min         583     583    158                29921    29921    4256
     Max         584     584    160                29924    29924    4257
     Sum        4669    4669   1273               239385   239385   34049
 
     Using Slab Decomposition
 


     bravais-lattice index     =            0
     lattice parameter (alat)  =      15.6173  a.u.
     unit-cell volume          =    3809.0683 (a.u.)^3
     number of atoms/cell      =           64
     number of atomic types    =            3
     number of electrons       =       292.00
     number of Kohn-Sham states=          175
     kinetic-energy cutoff     =      60.0000  Ry
     charge density cutoff     =     240.0000  Ry
     scf convergence threshold =      1.0E-08
     mixing beta               =       0.2000
     number of iterations used =            8  local-TF  mixing
     Exchange-correlation= SLA  PW   PBX  PBC
                           (   1   4   3   4   0   0   0)

     celldm(1)=  15.617311  celldm(2)=   0.000000  celldm(3)=   0.000000
     celldm(4)=   0.000000  celldm(5)=   0.000000  celldm(6)=   0.000000

     crystal axes: (cart. coord. in units of alat)
               a(1) = (   1.000000   0.000000   0.000000 )  
               a(2) = (   0.000000   1.000000   0.000000 )  
               a(3) = (   0.000000   0.000000   1.000000 )  

     reciprocal axes: (cart. coord. in units 2 pi/alat)
               b(1) = (  1.000000  0.000000  0.000000 )  
               b(2) = (  0.000000  1.000000  0.000000 )  
               b(3) = (  0.000000  0.000000  1.000000 )  


     PseudoPot. # 1 for Al read from file:
     ../../../pseudo/Al.pbe-n-kjpaw_psl.1.0.0.UPF
     MD5 check sum: 502b6b27b9c6270cab5dd1084b96fa6d
     Pseudo is Projector augmented-wave + core cor, Zval =  3.0
     Generated using &quot;atomic&quot; code by A. Dal Corso  v.6.3
     Shape of augmentation charge: PSQ
     Using radial grid of 1135 points,  6 beta functions with: 
                l(1) =   0
                l(2) =   0
                l(3) =   1
                l(4) =   1
                l(5) =   2
                l(6) =   2
     Q(r) pseudized with 0 coefficients 


     PseudoPot. # 2 for N  read from file:
     ../../../pseudo/N.pbe-n-kjpaw_psl.1.0.0.UPF
     MD5 check sum: 14c48229446f9f2d411169a3abcbc3fa
     Pseudo is Projector augmented-wave + core cor, Zval =  5.0
     Generated using &quot;atomic&quot; code by A. Dal Corso  v.6.3
     Shape of augmentation charge: PSQ
     Using radial grid of 1085 points,  4 beta functions with: 
                l(1) =   0
                l(2) =   0
                l(3) =   1
                l(4) =   1
     Q(r) pseudized with 0 coefficients 


     PseudoPot. # 3 for Ti read from file:
     ../../../pseudo/Ti.pbe-spn-kjpaw_psl.1.0.0.UPF
     MD5 check sum: 01f69b0d8ba4438b2e03ac6ea4af1c0b
     Pseudo is Projector augmented-wave + core cor, Zval = 12.0
     Generated using &quot;atomic&quot; code by A. Dal Corso  v.6.2.2
     Shape of augmentation charge: PSQ
     Using radial grid of 1177 points,  6 beta functions with: 
                l(1) =   0
                l(2) =   0
                l(3) =   1
                l(4) =   1
                l(5) =   2
                l(6) =   2
     Q(r) pseudized with 0 coefficients 


     atomic species   valence    mass     pseudopotential
        Al             3.00    26.98200     Al( 1.00)
        N              5.00    14.00700     N ( 1.00)
        Ti            12.00    47.86700     Ti( 1.00)

     No symmetry found



   Cartesian axes

     site n.     atom                  positions (alat units)
         1           Al  tau(   1) = (  -0.0024673  -0.0020384   0.0025673  )
         2           N   tau(   2) = (   0.2490411  -0.0095827   0.0092753  )
         3           Al  tau(   3) = (  -0.0042304   0.2442271   0.2482395  )
         4           N   tau(   4) = (   0.2474340   0.2372541   0.2575462  )
         5           Al  tau(   5) = (   0.2487646  -0.0025069   0.2475276  )
         6           N   tau(   6) = (  -0.0028589  -0.0002109   0.2425295  )
         7           Ti  tau(   7) = (   0.2470701   0.2474213   0.0005148  )
         8           N   tau(   8) = (  -0.0062132   0.2495299   0.0007143  )
         9           Ti  tau(   9) = (   0.0103772   0.0008742   0.5051038  )
        10           N   tau(  10) = (   0.2585442  -0.0031343   0.4870413  )
        11           Al  tau(  11) = (  -0.0046648   0.2525840   0.7438496  )
        12           N   tau(  12) = (   0.2466137   0.2569143   0.7314949  )
        13           Ti  tau(  13) = (   0.2396870   0.0101536   0.7436001  )
        14           N   tau(  14) = (  -0.0114344   0.0014166   0.7548510  )
        15           Al  tau(  15) = (   0.2508498   0.2508501   0.4942077  )
        16           N   tau(  16) = (  -0.0012701   0.2523857   0.4954399  )
        17           Al  tau(  17) = (  -0.0045364   0.4972322  -0.0017985  )
        18           N   tau(  18) = (   0.2473246   0.5056706  -0.0106376  )
        19           Al  tau(  19) = (   0.0005348   0.7437632   0.2471371  )
        20           N   tau(  20) = (   0.2474632   0.7452019   0.2492266  )
        21           Ti  tau(  21) = (   0.2480245   0.4842197   0.2351641  )
        22           N   tau(  22) = (  -0.0041955   0.4937974   0.2462039  )
        23           Al  tau(  23) = (   0.2481631   0.7439652  -0.0007938  )
        24           N   tau(  24) = (  -0.0016823   0.7412587   0.0002073  )
        25           Al  tau(  25) = (   0.0001219   0.4957162   0.4952731  )
        26           N   tau(  26) = (   0.2479032   0.4966689   0.4977058  )
        27           Al  tau(  27) = (  -0.0007079   0.7393569   0.7448397  )
        28           N   tau(  28) = (   0.2468326   0.7394192   0.7391395  )
        29           Al  tau(  29) = (   0.2482143   0.4971654   0.7404448  )
        30           N   tau(  30) = (  -0.0024700   0.4953597   0.7428940  )
        31           Al  tau(  31) = (   0.2506505   0.7394709   0.4936727  )
        32           N   tau(  32) = (  -0.0004219   0.7384428   0.4959653  )
        33           Al  tau(  33) = (   0.4963272  -0.0020390   0.0005130  )
        34           N   tau(  34) = (   0.7406886  -0.0004088   0.0023659  )
        35           Al  tau(  35) = (   0.4992443   0.2435778   0.2487996  )
        36           N   tau(  36) = (   0.7426762   0.2478174   0.2484832  )
        37           Al  tau(  37) = (   0.7427380  -0.0016172   0.2489629  )
        38           N   tau(  38) = (   0.4986869  -0.0004631   0.2462332  )
        39           Al  tau(  39) = (   0.7418004   0.2464922   0.0003760  )
        40           N   tau(  40) = (   0.5001810   0.2486737  -0.0000199  )
        41           Al  tau(  41) = (   0.4958953  -0.0008669   0.4956600  )
        42           N   tau(  42) = (   0.7365520  -0.0000069   0.4949565  )
        43           Al  tau(  43) = (   0.4981552   0.2479590   0.7414031  )
        44           N   tau(  44) = (   0.7423778   0.2491521   0.7420813  )
        45           Al  tau(  45) = (   0.7405795  -0.0004973   0.7434868  )
        46           N   tau(  46) = (   0.5012758   0.0011826   0.7452288  )
        47           Al  tau(  47) = (   0.7411878   0.2471190   0.4950934  )
        48           N   tau(  48) = (   0.4966691   0.2491309   0.4948925  )
        49           Al  tau(  49) = (   0.4992878   0.4970167  -0.0031698  )
        50           N   tau(  50) = (   0.7422796   0.4956648  -0.0004492  )
        51           Al  tau(  51) = (   0.4949073   0.7439031   0.2475049  )
        52           N   tau(  52) = (   0.7430458   0.7412976   0.2480308  )
        53           Al  tau(  53) = (   0.7423785   0.4955616   0.2479505  )
        54           N   tau(  54) = (   0.4992300   0.4935813   0.2459347  )
        55           Al  tau(  55) = (   0.7418456   0.7436533   0.0003347  )
        56           N   tau(  56) = (   0.4965130   0.7412895  -0.0001530  )
        57           Al  tau(  57) = (   0.4956959   0.4956777   0.4956796  )
        58           N   tau(  58) = (   0.7425999   0.4951615   0.4947134  )
        59           Al  tau(  59) = (   0.4942202   0.7440312   0.7423878  )
        60           N   tau(  60) = (   0.7425320   0.7419864   0.7424980  )
        61           Al  tau(  61) = (   0.7412770   0.4964572   0.7412514  )
        62           N   tau(  62) = (   0.4967179   0.4951789   0.7423149  )
        63           Al  tau(  63) = (   0.7415938   0.7431918   0.4950007  )
        64           N   tau(  64) = (   0.4967553   0.7406717   0.4948831  )

     number of k points=     8  Gaussian smearing, width (Ry)=  0.0050
                       cart. coord. in units 2pi/alat
        k(    1) = (   0.0000000   0.0000000   0.0000000), wk =   0.2500000
        k(    2) = (   0.0000000   0.0000000  -0.5000000), wk =   0.2500000
        k(    3) = (   0.0000000  -0.5000000  -0.5000000), wk =   0.2500000
        k(    4) = (  -0.5000000  -0.5000000  -0.5000000), wk =   0.2500000
        k(    5) = (  -0.5000000   0.0000000   0.0000000), wk =   0.2500000
        k(    6) = (   0.0000000  -0.5000000   0.0000000), wk =   0.2500000
        k(    7) = (  -0.5000000   0.0000000   0.5000000), wk =   0.2500000
        k(    8) = (  -0.5000000   0.5000000   0.0000000), wk =   0.2500000

     Dense  grid:   239385 G-vectors     FFT dimensions: (  80,  80,  80)

     Estimated max dynamical RAM per process >     163.23 MB

     Estimated total dynamical RAM >       4.93 GB

     Check: negative core charge=   -0.000009

     Initial potential from superposition of free atoms

     starting charge     291.9297, renormalised to     292.0000
     Starting wfcs are  280 randomized atomic wfcs
     Checking if some PAW data can be deallocated... 

     total cpu time spent up to now is        3.4 secs

     Self-consistent Calculation

     iteration #  1     ecut=    60.00 Ry     beta= 0.20
     Davidson diagonalization with overlap
     ethr =  1.00E-02,  avg # of iterations =  2.1

     total cpu time spent up to now is        8.0 secs

     total energy              =   -2751.36792773 Ry
     estimated scf accuracy    <      15.07938100 Ry

     iteration #  2     ecut=    60.00 Ry     beta= 0.20
     Davidson diagonalization with overlap
     ethr =  5.16E-03,  avg # of iterations =  1.0

     total cpu time spent up to now is       11.8 secs

     total energy              =   -2747.82490412 Ry
     estimated scf accuracy    <       8.39551308 Ry

     iteration #  3     ecut=    60.00 Ry     beta= 0.20
     Davidson diagonalization with overlap
     ethr =  2.88E-03,  avg # of iterations =  2.0

     total cpu time spent up to now is       16.7 secs

     total energy              =   -2749.56587084 Ry
     estimated scf accuracy    <       0.42087243 Ry

     iteration #  4     ecut=    60.00 Ry     beta= 0.20
     Davidson diagonalization with overlap
     ethr =  1.44E-04,  avg # of iterations = 13.0

     total cpu time spent up to now is       23.2 secs

     total energy              =   -2749.56333022 Ry
     estimated scf accuracy    <       0.22324893 Ry

     iteration #  5     ecut=    60.00 Ry     beta= 0.20
     Davidson diagonalization with overlap
     ethr =  7.65E-05,  avg # of iterations =  1.8

     total cpu time spent up to now is       27.2 secs

     total energy              =   -2749.54953747 Ry
     estimated scf accuracy    <       0.10826469 Ry

     iteration #  6     ecut=    60.00 Ry     beta= 0.20
     Davidson diagonalization with overlap
     ethr =  3.71E-05,  avg # of iterations =  4.6

     total cpu time spent up to now is       32.2 secs

     total energy              =   -2749.55281860 Ry
     estimated scf accuracy    <       0.01511170 Ry

     iteration #  7     ecut=    60.00 Ry     beta= 0.20
     Davidson diagonalization with overlap
     ethr =  5.18E-06,  avg # of iterations = 15.8

     total cpu time spent up to now is       39.8 secs

     total energy              =   -2749.55168716 Ry
     estimated scf accuracy    <       0.00794231 Ry

     iteration #  8     ecut=    60.00 Ry     beta= 0.20
     Davidson diagonalization with overlap
     ethr =  2.72E-06,  avg # of iterations =  6.8

     total cpu time spent up to now is       46.9 secs

     total energy              =   -2749.55305294 Ry
     estimated scf accuracy    <       0.02039853 Ry

     iteration #  9     ecut=    60.00 Ry     beta= 0.20
     Davidson diagonalization with overlap
     ethr =  2.72E-06,  avg # of iterations =  2.0

     total cpu time spent up to now is       51.3 secs

     total energy              =   -2749.55209215 Ry
     estimated scf accuracy    <       0.00489757 Ry

     iteration # 10     ecut=    60.00 Ry     beta= 0.20
     Davidson diagonalization with overlap
     ethr =  1.68E-06,  avg # of iterations =  2.0

     total cpu time spent up to now is       56.2 secs

     total energy              =   -2749.55286545 Ry
     estimated scf accuracy    <       0.00066135 Ry

     iteration # 11     ecut=    60.00 Ry     beta= 0.20
     Davidson diagonalization with overlap
     ethr =  2.26E-07,  avg # of iterations =  2.0

     total cpu time spent up to now is       60.5 secs

     total energy              =   -2749.55277108 Ry
     estimated scf accuracy    <       0.00042734 Ry

     iteration # 12     ecut=    60.00 Ry     beta= 0.20
     Davidson diagonalization with overlap
     ethr =  1.46E-07,  avg # of iterations =  2.0

     total cpu time spent up to now is       65.1 secs

     total energy              =   -2749.55281156 Ry
     estimated scf accuracy    <       0.00003002 Ry

     iteration # 13     ecut=    60.00 Ry     beta= 0.20
     Davidson diagonalization with overlap
     ethr =  1.03E-08,  avg # of iterations =  4.0

     total cpu time spent up to now is       70.5 secs

     total energy              =   -2749.55281025 Ry
     estimated scf accuracy    <       0.00002774 Ry

     iteration # 14     ecut=    60.00 Ry     beta= 0.20
     Davidson diagonalization with overlap
     ethr =  9.50E-09,  avg # of iterations =  2.0

     total cpu time spent up to now is       75.4 secs

     total energy              =   -2749.55281473 Ry
     estimated scf accuracy    <       0.00000254 Ry

     iteration # 15     ecut=    60.00 Ry     beta= 0.20
     Davidson diagonalization with overlap
     ethr =  8.69E-10,  avg # of iterations =  2.2

     total cpu time spent up to now is       80.4 secs

     total energy              =   -2749.55281437 Ry
     estimated scf accuracy    <       0.00000205 Ry

     iteration # 16     ecut=    60.00 Ry     beta= 0.20
     Davidson diagonalization with overlap
     ethr =  7.02E-10,  avg # of iterations =  2.0

     total cpu time spent up to now is       85.4 secs

     total energy              =   -2749.55281491 Ry
     estimated scf accuracy    <       0.00000078 Ry

     iteration # 17     ecut=    60.00 Ry     beta= 0.20
     Davidson diagonalization with overlap
     ethr =  2.67E-10,  avg # of iterations =  1.8

     total cpu time spent up to now is       89.4 secs

     total energy              =   -2749.55281483 Ry
     estimated scf accuracy    <       0.00000029 Ry

     iteration # 18     ecut=    60.00 Ry     beta= 0.20
     Davidson diagonalization with overlap
     ethr =  9.88E-11,  avg # of iterations =  2.0

     total cpu time spent up to now is       94.1 secs

     total energy              =   -2749.55281486 Ry
     estimated scf accuracy    <       0.00000004 Ry

     iteration # 19     ecut=    60.00 Ry     beta= 0.20
     Davidson diagonalization with overlap
     ethr =  1.50E-11,  avg # of iterations =  2.0

     total cpu time spent up to now is       98.2 secs

     total energy              =   -2749.55281487 Ry
     estimated scf accuracy    <       0.00000002 Ry

     iteration # 20     ecut=    60.00 Ry     beta= 0.20
     Davidson diagonalization with overlap
     ethr =  8.14E-12,  avg # of iterations =  2.0

     total cpu time spent up to now is      102.8 secs

     End of self-consistent calculation

          k = 0.0000 0.0000 0.0000 ( 29855 PWs)   bands (ev):

   -44.8474 -44.7606 -44.4842 -44.3457 -21.4405 -21.3847 -21.1440 -21.1349
   -21.0901 -21.0251 -20.9681 -20.9157 -20.7056 -20.6651 -20.6239 -20.4335
    -5.8405  -4.5226  -4.4501  -4.3660  -4.3477  -4.2199  -4.1034  -3.3636
    -3.3173  -3.2950  -3.2341  -3.1929  -3.1779  -3.1350  -3.1125  -3.0702
    -2.9387  -2.8828  -2.8433  -2.8128  -2.7208  -2.7118  -2.5997  -2.2008
    -2.1663  -2.1422  -1.9866  -1.9399  -1.8976  -1.8824  -1.8253  -1.8098
     2.9808   3.2685   3.3303   3.6487   4.3165   4.3449   4.3498   5.0801
     5.1028   5.1448   5.1899   5.1983   5.2028   5.2230   5.2735   5.4568
     5.5642   5.5924   5.5958   5.6310   5.6615   5.6840   5.7895   5.7945
     5.8454   5.8809   5.9474   6.0650   6.1382   6.2266   6.3252   6.9236
     6.9278   6.9550   6.9627   6.9986   7.0137   7.0554   7.0882   7.1655
     7.1886   7.2103   7.3037   7.3186   7.3337   7.3682   7.3913   7.4140
     7.5112   7.6285   7.6647   7.6744   7.9247   8.1484   8.3706   8.4950
     8.5091   8.5704   8.6101   8.7079   8.7690   8.9320   9.1395   9.2244
     9.2675   9.3508   9.3924   9.4345   9.4523   9.4621   9.4871   9.4975
     9.5690   9.6124   9.6552   9.6617   9.6828   9.7268   9.7648   9.8207
     9.8833   9.9407   9.9507   9.9660  10.0088  10.0262  10.0327  10.0579
    10.0664  10.1362  10.1540  10.1579  10.1785  11.0611  11.0813  11.1115
    12.4467  12.8255  13.1543  13.4738  13.6794  13.7798  14.0224  14.2477
    14.5513  14.5857  15.1127  15.3285  15.4279  15.7217  15.7674  15.8994
    15.9267  16.0202  16.0361  16.2014  16.2483  16.5205  16.7304  16.9082
    16.9579  17.0371  17.1294  17.2824  17.3499  17.8097  18.0737

          k = 0.0000 0.0000-0.5000 ( 29958 PWs)   bands (ev):

   -44.8474 -44.7606 -44.4842 -44.3457 -21.4405 -21.3847 -21.1441 -21.1349
   -21.0901 -21.0251 -20.9681 -20.9157 -20.7056 -20.6652 -20.6238 -20.4336
    -5.5085  -5.3749  -4.1988  -4.1316  -4.1078  -4.0671  -3.9865  -3.9083
    -3.8020  -3.6734  -3.1707  -3.1137  -3.0713  -3.0130  -2.9769  -2.9392
    -2.8827  -2.8681  -2.7796  -2.6762  -2.4123  -2.3861  -2.3391  -2.2705
    -2.2371  -2.1641  -2.1261  -2.0954  -2.0290  -1.9920  -1.9604  -1.8999
     3.7310   3.8287   3.8673   3.9578   4.1484   4.2276   4.3019   4.4133
     4.6376   4.6639   4.7772   4.7831   4.9366   4.9722   4.9981   5.0547
     5.1234   5.2082   5.3299   5.5057   5.6140   5.6905   5.8339   5.8946
     6.1427   6.1623   6.2015   6.2153   6.3003   6.3645   6.3834   6.4215
     6.5030   6.6010   6.6902   6.7687   6.7806   6.8263   7.4035   7.4071
     7.5316   7.6176   7.6345   7.6940   7.7495   7.9088   8.3088   8.3888
     8.4005   8.4635   8.4986   8.5198   8.5415   8.5555   8.5791   8.6004
     8.6462   8.6633   8.6793   8.7197   8.7322   8.7726   8.7956   8.8152
     8.8464   8.8600   8.9302   8.9408   9.0089   9.0341   9.0962   9.1243
     9.2165   9.2773   9.3691   9.5002   9.5685   9.6163   9.7101   9.7550
     9.7956   9.8335   9.9113   9.9275   9.9633   9.9836   9.9949  10.0321
    10.0547  10.0934  10.1211  10.1713  10.5147  10.5388  10.6230  10.6342
    13.0486  13.2333  13.3270  13.3508  13.6289  13.6951  14.1908  14.2360
    14.3622  14.5003  15.2207  15.3826  15.7172  15.8756  15.9711  16.0802
    16.1652  16.2318  16.2962  16.3866  16.5713  16.7392  16.8751  17.0288
    17.4120  17.6124  17.6915  17.7948  17.8935  17.9805  18.0213

          k = 0.0000-0.5000-0.5000 ( 29944 PWs)   bands (ev):

   -44.8474 -44.7606 -44.4842 -44.3457 -21.4405 -21.3847 -21.1440 -21.1349
   -21.0901 -21.0251 -20.9681 -20.9157 -20.7056 -20.6652 -20.6238 -20.4336
    -5.2402  -5.0808  -5.0262  -4.8249  -3.9247  -3.7967  -3.7837  -3.7028
    -3.6424  -3.5973  -3.5456  -3.4199  -2.9864  -2.8218  -2.7565  -2.7414
    -2.6947  -2.6535  -2.5584  -2.5468  -2.5200  -2.4735  -2.4483  -2.3886
    -2.3853  -2.2682  -2.2198  -2.1340  -2.1220  -2.0379  -1.9561  -1.8569
     3.7785   3.9071   3.9413   4.0911   4.1420   4.2004   4.3413   4.4980
     4.7372   4.9405   4.9872   5.0079   5.0305   5.0694   5.1115   5.1266
     5.1830   5.2119   5.2223   5.2773   5.3136   5.3594   5.4029   5.5026
     5.5398   5.5599   5.6455   5.6822   5.9314   6.1416   6.3589   6.5424
     7.0095   7.1333   7.3273   7.4066   7.4444   7.5625   7.5753   7.6184
     7.6256   7.6811   7.6980   7.8238   7.9318   7.9979   8.0053   8.0932
     8.1141   8.1533   8.1996   8.2476   8.2695   8.3625   8.3946   8.4118
     8.4340   8.4845   8.5573   8.7011   8.8611   8.8870   8.9335   8.9663
     8.9713   9.0513   9.1239   9.1888   9.2324   9.2487   9.3036   9.3436
     9.3617   9.4353   9.4522   9.4583   9.5175   9.5428   9.5632   9.5768
     9.6341   9.6501   9.7137   9.7774   9.7867   9.8368   9.8747   9.9810
    10.0191  10.0744  10.0858  10.1223  10.6677  10.7149  10.7590  10.8035
    13.0670  13.2434  13.5488  13.5660  13.6533  13.7154  14.1445  14.1897
    14.2323  14.5332  15.2315  15.2915  15.8133  15.9947  16.0143  16.0814
    16.1476  16.3684  16.5645  16.7330  16.8033  16.9380  17.0404  17.2055
    17.2931  17.4075  17.5054  17.6365  17.6832  17.7801  17.8424

          k =-0.5000-0.5000-0.5000 ( 29824 PWs)   bands (ev):

   -44.8474 -44.7606 -44.4842 -44.3457 -21.4405 -21.3847 -21.1440 -21.1349
   -21.0901 -21.0250 -20.9681 -20.9157 -20.7056 -20.6652 -20.6238 -20.4336
    -4.9471  -4.8306  -4.7941  -4.7649  -4.6040  -4.5571  -4.4798  -4.2384
    -3.0171  -2.9240  -2.8327  -2.8056  -2.7343  -2.7023  -2.6727  -2.6416
    -2.6019  -2.6002  -2.5742  -2.5476  -2.5294  -2.5180  -2.5044  -2.4682
    -2.4306  -2.4099  -2.3542  -2.3154  -2.2956  -2.2492  -2.1901  -2.0670
     4.2229   4.2839   4.3489   4.3991   4.4108   4.4540   4.4784   4.4941
     4.5198   4.5295   4.5622   4.5804   4.6361   4.6512   4.6683   4.7039
     4.7218   4.7547   4.8578   4.9550   5.1529   5.3282   5.5342   5.6062
     6.6539   6.7180   6.7427   6.8110   6.8406   6.8535   6.8665   6.9377
     6.9707   7.0080   7.0546   7.1057   7.1697   7.2442   7.2836   7.3000
     7.3418   7.3770   7.4354   7.4390   7.4743   7.5411   7.5673   7.6273
     7.6743   7.6940   7.7357   7.8055   7.8580   7.9069   8.0041   8.2359
     8.5241   8.5606   8.7315   8.7889   8.8715   8.8905   8.9378   8.9936
     9.0229   9.0653   9.0838   9.1016   9.1527   9.1907   9.2362   9.2903
     9.3374   9.3831   9.4268   9.4702   9.4782   9.6054   9.7169   9.7503
    10.0741  10.1143  10.1736  10.2447  10.3243  10.3593  10.4044  10.4262
    10.4610  10.4903  10.4993  10.5108  10.5218  10.5500  10.5616  10.5754
    13.0536  13.1835  13.4151  13.5016  13.6412  13.6662  14.0499  14.0636
    14.1618  14.4574  15.0758  15.2913  16.0506  16.1472  16.2242  16.3484
    16.4705  16.5039  16.7911  16.8775  17.0014  17.0509  17.1059  17.1273
    17.1591  17.1839  17.2080  17.2359  17.2719  17.3276  17.4658

          k =-0.5000 0.0000 0.0000 ( 29958 PWs)   bands (ev):

   -44.8474 -44.7606 -44.4842 -44.3457 -21.4405 -21.3847 -21.1441 -21.1349
   -21.0901 -21.0251 -20.9681 -20.9158 -20.7056 -20.6651 -20.6239 -20.4336
    -5.5338  -5.3294  -4.2155  -4.1702  -4.1337  -4.0373  -3.9949  -3.9485
    -3.7706  -3.6011  -3.2469  -3.1480  -3.0542  -3.0320  -2.9528  -2.9184
    -2.8888  -2.8332  -2.7158  -2.7064  -2.3907  -2.3477  -2.3248  -2.2848
    -2.2394  -2.2359  -2.1703  -2.0802  -2.0644  -1.9959  -1.9312  -1.8598
     3.7020   3.8830   3.9090   4.0077   4.0792   4.1302   4.1786   4.4904
     4.4950   4.6925   4.9103   4.9396   4.9733   4.9800   5.0219   5.0325
     5.1110   5.1615   5.3466   5.4256   5.5405   5.6948   5.9616   5.9829
     6.0954   6.1027   6.1629   6.2196   6.3264   6.3567   6.3863   6.4587
     6.4865   6.4955   6.5895   6.6863   6.8264   7.0022   7.3401   7.3544
     7.5840   7.7007   7.7653   7.7847   7.8890   7.9776   8.0697   8.3495
     8.3737   8.4399   8.4859   8.4953   8.5073   8.5385   8.5640   8.5786
     8.6390   8.6511   8.6676   8.6848   8.6957   8.7334   8.7658   8.7916
     8.8015   8.8712   8.9148   8.9448   9.0081   9.0692   9.1205   9.1423
     9.1852   9.3002   9.3413   9.4526   9.5985   9.6342   9.7253   9.7716
     9.8602   9.8679   9.9223   9.9304   9.9811  10.0000  10.0112  10.0429
    10.0765  10.1273  10.1313  10.1902  10.4964  10.5093  10.6008  10.6881
    12.4504  13.1741  13.4795  13.6393  13.7647  13.8145  14.1290  14.2925
    14.5492  14.5858  15.2134  15.4358  15.7166  15.8312  15.9119  16.0595
    16.0997  16.1607  16.2261  16.5039  16.6679  16.7585  16.8191  17.0402
    17.2430  17.2707  17.5005  17.7453  17.9285  17.9621  18.0101

          k = 0.0000-0.5000 0.0000 ( 29958 PWs)   bands (ev):

   -44.8474 -44.7606 -44.4842 -44.3457 -21.4405 -21.3847 -21.1441 -21.1349
   -21.0901 -21.0251 -20.9681 -20.9157 -20.7056 -20.6651 -20.6239 -20.4336
    -5.5453  -5.3195  -4.2771  -4.1470  -4.0716  -4.0380  -3.9610  -3.8744
    -3.8587  -3.6420  -3.1998  -3.1457  -3.0980  -3.0568  -3.0462  -2.9331
    -2.8195  -2.7852  -2.7239  -2.6896  -2.3863  -2.3557  -2.3074  -2.2998
    -2.2428  -2.2064  -2.1869  -2.0848  -2.0733  -2.0437  -1.8979  -1.8378
     3.6927   3.8301   3.9208   4.0148   4.0991   4.2280   4.3178   4.3686
     4.5663   4.5846   4.8358   4.8675   4.9245   4.9489   4.9921   5.0583
     5.2033   5.2770   5.3446   5.3821   5.5228   5.6765   5.7937   6.0010
     6.1074   6.1520   6.2508   6.3175   6.3251   6.3501   6.4004   6.4589
     6.4922   6.5177   6.6158   6.7138   6.8105   6.8174   7.4785   7.4863
     7.5601   7.5709   7.6138   7.6624   7.8202   7.9254   8.1622   8.3621
     8.4330   8.4670   8.4752   8.4952   8.5399   8.6252   8.6389   8.6435
     8.6691   8.6752   8.6863   8.7192   8.7274   8.7673   8.7844   8.7896
     8.8168   8.8661   8.9154   8.9205   8.9476   8.9812   9.0709   9.1709
     9.2060   9.3097   9.4282   9.4964   9.5929   9.6746   9.7106   9.7550
     9.8045   9.8409   9.8653   9.9028   9.9401   9.9839   9.9990  10.0343
    10.0562  10.0912  10.1456  10.1512  10.5414  10.5670  10.5721  10.6212
    12.8465  12.9874  13.4254  13.5488  13.7160  13.7796  14.1796  14.2538
    14.3574  14.5275  15.3143  15.4124  15.7306  15.8613  15.9874  16.0795
    16.1872  16.2433  16.3030  16.3728  16.6250  16.6858  16.8225  17.0128
    17.4786  17.5880  17.7180  17.7461  17.8136  17.9331  17.9463

          k =-0.5000 0.0000 0.5000 ( 29944 PWs)   bands (ev):

   -44.8474 -44.7606 -44.4842 -44.3457 -21.4405 -21.3847 -21.1441 -21.1349
   -21.0901 -21.0251 -20.9681 -20.9157 -20.7056 -20.6652 -20.6238 -20.4336
    -5.2248  -5.0859  -4.9988  -4.8750  -3.9178  -3.7937  -3.7584  -3.7036
    -3.6510  -3.6105  -3.5545  -3.4379  -2.9053  -2.8797  -2.7916  -2.7489
    -2.7150  -2.6117  -2.5901  -2.5737  -2.4574  -2.4450  -2.4138  -2.3949
    -2.3042  -2.2836  -2.2411  -2.1715  -2.1107  -2.0437  -1.9642  -1.9010
     3.8542   3.9140   3.9440   3.9542   4.1527   4.2019   4.3565   4.5784
     4.8229   4.9045   4.9665   5.0119   5.0287   5.0669   5.0843   5.1350
     5.1771   5.1966   5.2282   5.2608   5.3178   5.3511   5.3605   5.4655
     5.4828   5.5522   5.6895   5.8280   5.8810   6.0645   6.3310   6.5149
     7.1605   7.2046   7.2836   7.3544   7.4922   7.5633   7.5885   7.5932
     7.6389   7.6776   7.6977   7.7276   7.8477   7.8539   8.0265   8.1093
     8.1768   8.1962   8.2345   8.2732   8.2912   8.3833   8.4008   8.4427
     8.4810   8.5832   8.6171   8.6721   8.8187   8.8823   8.9276   8.9394
     8.9901   9.0650   9.0892   9.1340   9.1697   9.2126   9.2667   9.3075
     9.4009   9.4173   9.4998   9.5147   9.5264   9.5847   9.6056   9.6421
     9.6645   9.6884   9.7320   9.7559   9.8134   9.8443   9.9108   9.9221
     9.9652   9.9926  10.0203  10.0598  10.6311  10.6570  10.8119  10.8367
    13.0469  13.1908  13.4537  13.5642  13.6225  13.7551  14.1399  14.2004
    14.3690  14.5258  15.0650  15.4070  15.7571  15.8645  16.1633  16.2538
    16.2797  16.4205  16.6104  16.7204  16.8452  17.0475  17.0929  17.1864
    17.2552  17.3517  17.4573  17.5549  17.6379  17.7587  17.9006

          k =-0.5000 0.5000 0.0000 ( 29944 PWs)   bands (ev):

   -44.8474 -44.7606 -44.4842 -44.3457 -21.4405 -21.3847 -21.1441 -21.1349
   -21.0901 -21.0251 -20.9681 -20.9157 -20.7056 -20.6651 -20.6239 -20.4336
    -5.2419  -5.0674  -5.0441  -4.7919  -3.9209  -3.8092  -3.7736  -3.7318
    -3.6739  -3.6240  -3.5462  -3.4669  -2.8954  -2.8153  -2.7701  -2.7184
    -2.6914  -2.6467  -2.6278  -2.5155  -2.4803  -2.4216  -2.3998  -2.3575
    -2.3380  -2.3070  -2.2553  -2.2191  -2.1747  -2.0017  -1.9508  -1.8754
     3.8643   3.9008   3.9929   4.0561   4.1478   4.2144   4.2973   4.4541
     4.7615   4.9417   5.0069   5.0119   5.0368   5.0890   5.0931   5.1136
     5.1316   5.1692   5.1854   5.2196   5.2664   5.3271   5.3808   5.4859
     5.5556   5.6075   5.6268   5.8010   5.8781   6.1385   6.3700   6.5307
     7.0865   7.2092   7.3447   7.4536   7.4800   7.5273   7.5482   7.6246
     7.6634   7.6931   7.7591   7.7905   7.8023   7.9806   8.0380   8.0535
     8.1323   8.1611   8.1868   8.2370   8.2866   8.3653   8.4253   8.4823
     8.5225   8.5583   8.5954   8.6424   8.7337   8.8003   8.9143   8.9155
     8.9999   9.0596   9.1025   9.1541   9.2143   9.2456   9.2670   9.3498
     9.4016   9.4151   9.4587   9.5228   9.5602   9.5866   9.5945   9.6194
     9.6410   9.6616   9.7758   9.8112   9.8352   9.8653   9.8815   9.9367
     9.9549   9.9829  10.0343  10.0450  10.6129  10.6582  10.7873  10.8419
    12.9874  13.1686  13.4200  13.6125  13.6732  13.7746  14.0680  14.2598
    14.3693  14.4197  15.2179  15.3654  15.7050  15.9439  16.0925  16.2174
    16.4033  16.5072  16.6274  16.6630  16.8578  16.9073  17.0897  17.1599
    17.2770  17.4407  17.5022  17.5451  17.6184  17.8095  17.8537

     the Fermi energy is    13.2517 ev

!    total energy              =   -2749.55281486 Ry
     total all-electron energy =    -23938.803842 Ry
     estimated scf accuracy    <          5.6E-09 Ry
     smearing contrib. (-TS)   =      -0.00133127 Ry
     internal energy E=F+TS    =   -2749.55148358 Ry

     The total energy is F=E-TS. E is the sum of the following terms:
     one-electron contribution =    -213.37292662 Ry
     hartree contribution      =     315.41533076 Ry
     xc contribution           =    -338.51134099 Ry
     ewald contribution        =   -1026.22664844 Ry
     one-center paw contrib.   =   -1486.85589829 Ry

     convergence has been achieved in  20 iterations
 
     init_run     :      2.34s CPU      2.52s WALL (       1 calls)
     electrons    :     97.42s CPU     99.48s WALL (       1 calls)

     Called by init_run:
     wfcinit      :      1.91s CPU      1.98s WALL (       1 calls)
     potinit      :      0.21s CPU      0.26s WALL (       1 calls)
     hinit0       :      0.12s CPU      0.14s WALL (       1 calls)

     Called by electrons:
     c_bands      :     81.01s CPU     82.35s WALL (      20 calls)
     sum_band     :     10.59s CPU     10.81s WALL (      20 calls)
     v_of_rho     :      0.74s CPU      0.75s WALL (      21 calls)
     newd         :      1.17s CPU      1.46s WALL (      21 calls)
     PAW_pot      :      3.21s CPU      3.31s WALL (      21 calls)
     mix_rho      :      0.91s CPU      0.99s WALL (      20 calls)

     Called by c_bands:
     init_us_2    :      1.57s CPU      1.60s WALL (      82 calls)
     init_us_2:cp :      1.57s CPU      1.60s WALL (      82 calls)
     cegterg      :     70.74s CPU     72.02s WALL (      40 calls)

     Called by *egterg:
     cdiaghg      :      5.31s CPU      5.40s WALL (     193 calls)
     h_psi        :     39.63s CPU     40.26s WALL (     195 calls)
     s_psi        :     10.31s CPU     10.40s WALL (     195 calls)
     g_psi        :      0.17s CPU      0.18s WALL (     153 calls)

     Called by h_psi:
     h_psi:calbec :      9.59s CPU      9.67s WALL (     195 calls)
     vloc_psi     :     19.35s CPU     19.68s WALL (     195 calls)
     add_vuspsi   :     10.32s CPU     10.43s WALL (     195 calls)

     General routines
     calbec       :     13.24s CPU     13.35s WALL (     235 calls)
     fft          :      0.45s CPU      0.47s WALL (     231 calls)
     ffts         :      0.45s CPU      0.45s WALL (     417 calls)
     fftw         :     19.76s CPU     20.09s WALL (   42516 calls)
 
     Parallel routines
 
     PWSCF        :   1m40.01s CPU   1m42.95s WALL

 
   This run was terminated on:   9:56:22  13May2026            

=------------------------------------------------------------------------------=
   JOB DONE.
=------------------------------------------------------------------------------=
