
     Program PWSCF v.7.1 starts on 12May2026 at 17:12:43 

     This program is part of the open-source Quantum ESPRESSO suite
     for quantum simulation of materials; please cite
         "P. Giannozzi et al., J. Phys.:Condens. Matter 21 395502 (2009);
         "P. Giannozzi et al., J. Phys.:Condens. Matter 29 465901 (2017);
         "P. Giannozzi et al., J. Chem. Phys. 152 154105 (2020);
          URL http://www.quantum-espresso.org", 
     in publications or presentations arising from this work. More details at
     http://www.quantum-espresso.org/quote

     Parallel version (MPI & OpenMP), running on      32 processor cores
     Number of MPI processes:                32
     Threads/MPI process:                     1

     MPI processes distributed on     1 nodes
     91295 MiB available memory on the printing compute node when the environment starts
 
     Reading input from TiAlN_x0875finalrelaxedresult82234125.in

     Current dimensions of program PWSCF are:
     Max number of different atomic species (ntypx) = 10
     Max number of k-points (npk) = 150000
     Max angular momentum in pseudopotentials (lmaxx) =  4
     file Al.pbe-n-kjpaw_psl.1.0.0.UPF: wavefunction(s)  3S 3P renormalized
     file N.pbe-n-kjpaw_psl.1.0.0.UPF: wavefunction(s)  2S renormalized
     file Ti.pbe-spn-kjpaw_psl.1.0.0.UPF: wavefunction(s)  3S 3P 3D renormalized
 
     K-points division:     npool     =       4
     R & G space division:  proc/nbgrp/npool/nimage =       8
     Subspace diagonalization in iterative solution of the eigenvalue problem:
     one sub-group per band group will be used
     scalapack distributed-memory algorithm (size of sub-group:  2*  2 procs)

 
     Parallelization info
     --------------------
     sticks:   dense  smooth     PW     G-vecs:    dense   smooth      PW
     Min         577     577    157                29435    29435    4175
     Max         578     578    158                29438    29438    4176
     Sum        4621    4621   1257               235497   235497   33401
 
     Using Slab Decomposition
 


     bravais-lattice index     =            0
     lattice parameter (alat)  =      15.5400  a.u.
     unit-cell volume          =    3752.7776 (a.u.)^3
     number of atoms/cell      =           64
     number of atomic types    =            3
     number of electrons       =       292.00
     number of Kohn-Sham states=          175
     kinetic-energy cutoff     =      60.0000  Ry
     charge density cutoff     =     240.0000  Ry
     scf convergence threshold =      1.0E-08
     mixing beta               =       0.2000
     number of iterations used =            8  local-TF  mixing
     Exchange-correlation= SLA  PW   PBX  PBC
                           (   1   4   3   4   0   0   0)

     celldm(1)=  15.539997  celldm(2)=   0.000000  celldm(3)=   0.000000
     celldm(4)=   0.000000  celldm(5)=   0.000000  celldm(6)=   0.000000

     crystal axes: (cart. coord. in units of alat)
               a(1) = (   1.000000   0.000000   0.000000 )  
               a(2) = (   0.000000   1.000000   0.000000 )  
               a(3) = (   0.000000   0.000000   1.000000 )  

     reciprocal axes: (cart. coord. in units 2 pi/alat)
               b(1) = (  1.000000  0.000000  0.000000 )  
               b(2) = (  0.000000  1.000000  0.000000 )  
               b(3) = (  0.000000  0.000000  1.000000 )  


     PseudoPot. # 1 for Al read from file:
     ../../../pseudo/Al.pbe-n-kjpaw_psl.1.0.0.UPF
     MD5 check sum: 502b6b27b9c6270cab5dd1084b96fa6d
     Pseudo is Projector augmented-wave + core cor, Zval =  3.0
     Generated using &quot;atomic&quot; code by A. Dal Corso  v.6.3
     Shape of augmentation charge: PSQ
     Using radial grid of 1135 points,  6 beta functions with: 
                l(1) =   0
                l(2) =   0
                l(3) =   1
                l(4) =   1
                l(5) =   2
                l(6) =   2
     Q(r) pseudized with 0 coefficients 


     PseudoPot. # 2 for N  read from file:
     ../../../pseudo/N.pbe-n-kjpaw_psl.1.0.0.UPF
     MD5 check sum: 14c48229446f9f2d411169a3abcbc3fa
     Pseudo is Projector augmented-wave + core cor, Zval =  5.0
     Generated using &quot;atomic&quot; code by A. Dal Corso  v.6.3
     Shape of augmentation charge: PSQ
     Using radial grid of 1085 points,  4 beta functions with: 
                l(1) =   0
                l(2) =   0
                l(3) =   1
                l(4) =   1
     Q(r) pseudized with 0 coefficients 


     PseudoPot. # 3 for Ti read from file:
     ../../../pseudo/Ti.pbe-spn-kjpaw_psl.1.0.0.UPF
     MD5 check sum: 01f69b0d8ba4438b2e03ac6ea4af1c0b
     Pseudo is Projector augmented-wave + core cor, Zval = 12.0
     Generated using &quot;atomic&quot; code by A. Dal Corso  v.6.2.2
     Shape of augmentation charge: PSQ
     Using radial grid of 1177 points,  6 beta functions with: 
                l(1) =   0
                l(2) =   0
                l(3) =   1
                l(4) =   1
                l(5) =   2
                l(6) =   2
     Q(r) pseudized with 0 coefficients 


     atomic species   valence    mass     pseudopotential
        Al             3.00    26.98200     Al( 1.00)
        N              5.00    14.00700     N ( 1.00)
        Ti            12.00    47.86700     Ti( 1.00)

     No symmetry found



   Cartesian axes

     site n.     atom                  positions (alat units)
         1           Al  tau(   1) = (  -0.0024796  -0.0020486   0.0025801  )
         2           N   tau(   2) = (   0.2502801  -0.0096304   0.0093214  )
         3           Al  tau(   3) = (  -0.0042515   0.2454421   0.2494745  )
         4           N   tau(   4) = (   0.2486650   0.2384344   0.2588275  )
         5           Al  tau(   5) = (   0.2500022  -0.0025194   0.2487591  )
         6           N   tau(   6) = (  -0.0028731  -0.0002120   0.2437361  )
         7           Ti  tau(   7) = (   0.2482993   0.2486523   0.0005174  )
         8           N   tau(   8) = (  -0.0062441   0.2507714   0.0007179  )
         9           Ti  tau(   9) = (   0.0104288   0.0008786   0.5076168  )
        10           N   tau(  10) = (   0.2598304  -0.0031499   0.4894644  )
        11           Al  tau(  11) = (  -0.0046880   0.2538407   0.7475503  )
        12           N   tau(  12) = (   0.2478407   0.2581925   0.7351342  )
        13           Ti  tau(  13) = (   0.2408795   0.0102041   0.7472996  )
        14           N   tau(  14) = (  -0.0114913   0.0014236   0.7586065  )
        15           Al  tau(  15) = (   0.2520978   0.2520981   0.4966665  )
        16           N   tau(  16) = (  -0.0012764   0.2536413   0.4979048  )
        17           Al  tau(  17) = (  -0.0045590   0.4997060  -0.0018075  )
        18           N   tau(  18) = (   0.2485550   0.5081864  -0.0106905  )
        19           Al  tau(  19) = (   0.0005375   0.7474635   0.2483666  )
        20           N   tau(  20) = (   0.2486944   0.7489093   0.2504665  )
        21           Ti  tau(  21) = (   0.2492585   0.4866288   0.2363341  )
        22           N   tau(  22) = (  -0.0042163   0.4962541   0.2474288  )
        23           Al  tau(  23) = (   0.2493978   0.7476666  -0.0007978  )
        24           N   tau(  24) = (  -0.0016907   0.7449466   0.0002084  )
        25           Al  tau(  25) = (   0.0001225   0.4981824   0.4977372  )
        26           N   tau(  26) = (   0.2491365   0.4991399   0.5001820  )
        27           Al  tau(  27) = (  -0.0007114   0.7430353   0.7485454  )
        28           N   tau(  28) = (   0.2480607   0.7430979   0.7428168  )
        29           Al  tau(  29) = (   0.2494492   0.4996388   0.7441286  )
        30           N   tau(  30) = (  -0.0024823   0.4978242   0.7465900  )
        31           Al  tau(  31) = (   0.2518975   0.7431498   0.4961288  )
        32           N   tau(  32) = (  -0.0004240   0.7421167   0.4984328  )
        33           Al  tau(  33) = (   0.4987965  -0.0020492   0.0005156  )
        34           N   tau(  34) = (   0.7443736  -0.0004109   0.0023777  )
        35           Al  tau(  35) = (   0.5017281   0.2447896   0.2500374  )
        36           N   tau(  36) = (   0.7463711   0.2490503   0.2497194  )
        37           Al  tau(  37) = (   0.7464332  -0.0016252   0.2502015  )
        38           N   tau(  38) = (   0.5011679  -0.0004654   0.2474582  )
        39           Al  tau(  39) = (   0.7454909   0.2477185   0.0003779  )
        40           N   tau(  40) = (   0.5026694   0.2499109  -0.0000200  )
        41           Al  tau(  41) = (   0.4983624  -0.0008712   0.4981260  )
        42           N   tau(  42) = (   0.7402164  -0.0000070   0.4974190  )
        43           Al  tau(  43) = (   0.5006336   0.2491926   0.7450917  )
        44           N   tau(  44) = (   0.7460712   0.2503917   0.7457733  )
        45           Al  tau(  45) = (   0.7442640  -0.0004998   0.7471857  )
        46           N   tau(  46) = (   0.5037698   0.0011885   0.7489364  )
        47           Al  tau(  47) = (   0.7448753   0.2483484   0.4975566  )
        48           N   tau(  48) = (   0.4991401   0.2503703   0.4973547  )
        49           Al  tau(  49) = (   0.5017718   0.4994894  -0.0031856  )
        50           N   tau(  50) = (   0.7459726   0.4981308  -0.0004515  )
        51           Al  tau(  51) = (   0.4973696   0.7476041   0.2487362  )
        52           N   tau(  52) = (   0.7467425   0.7449857   0.2492648  )
        53           Al  tau(  53) = (   0.7460719   0.4980271   0.2491841  )
        54           N   tau(  54) = (   0.5017138   0.4960369   0.2471583  )
        55           Al  tau(  55) = (   0.7455364   0.7473531   0.0003364  )
        56           N   tau(  56) = (   0.4989832   0.7449776  -0.0001537  )
        57           Al  tau(  57) = (   0.4981621   0.4981438   0.4981457  )
        58           N   tau(  58) = (   0.7462944   0.4976250   0.4971747  )
        59           Al  tau(  59) = (   0.4966791   0.7477329   0.7460812  )
        60           N   tau(  60) = (   0.7462262   0.7456779   0.7461920  )
        61           Al  tau(  61) = (   0.7449649   0.4989271   0.7449392  )
        62           N   tau(  62) = (   0.4991892   0.4976424   0.7460080  )
        63           Al  tau(  63) = (   0.7452834   0.7468893   0.4974634  )
        64           N   tau(  64) = (   0.4992267   0.7443566   0.4973452  )

     number of k points=     8  Gaussian smearing, width (Ry)=  0.0050
                       cart. coord. in units 2pi/alat
        k(    1) = (   0.0000000   0.0000000   0.0000000), wk =   0.2500000
        k(    2) = (   0.0000000   0.0000000  -0.5000000), wk =   0.2500000
        k(    3) = (   0.0000000  -0.5000000  -0.5000000), wk =   0.2500000
        k(    4) = (  -0.5000000  -0.5000000  -0.5000000), wk =   0.2500000
        k(    5) = (  -0.5000000   0.0000000   0.0000000), wk =   0.2500000
        k(    6) = (   0.0000000  -0.5000000   0.0000000), wk =   0.2500000
        k(    7) = (  -0.5000000   0.0000000   0.5000000), wk =   0.2500000
        k(    8) = (  -0.5000000   0.5000000   0.0000000), wk =   0.2500000

     Dense  grid:   235497 G-vectors     FFT dimensions: (  80,  80,  80)

     Estimated max dynamical RAM per process >     160.98 MB

     Estimated total dynamical RAM >       4.86 GB

     Check: negative core charge=   -0.000009

     Initial potential from superposition of free atoms

     starting charge     291.9297, renormalised to     292.0000
     Starting wfcs are  280 randomized atomic wfcs
     Checking if some PAW data can be deallocated... 

     total cpu time spent up to now is        2.8 secs

     Self-consistent Calculation

     iteration #  1     ecut=    60.00 Ry     beta= 0.20
     Davidson diagonalization with overlap
     ethr =  1.00E-02,  avg # of iterations =  2.1

     total cpu time spent up to now is        7.3 secs

     total energy              =   -2751.41386143 Ry
     estimated scf accuracy    <      15.05105509 Ry

     iteration #  2     ecut=    60.00 Ry     beta= 0.20
     Davidson diagonalization with overlap
     ethr =  5.15E-03,  avg # of iterations =  1.0

     total cpu time spent up to now is       11.0 secs

     total energy              =   -2747.87041235 Ry
     estimated scf accuracy    <       8.37325455 Ry

     iteration #  3     ecut=    60.00 Ry     beta= 0.20
     Davidson diagonalization with overlap
     ethr =  2.87E-03,  avg # of iterations =  2.0

     total cpu time spent up to now is       15.8 secs

     total energy              =   -2749.60373335 Ry
     estimated scf accuracy    <       0.43198687 Ry

     iteration #  4     ecut=    60.00 Ry     beta= 0.20
     Davidson diagonalization with overlap
     ethr =  1.48E-04,  avg # of iterations = 12.8

     total cpu time spent up to now is       22.0 secs

     total energy              =   -2749.60588145 Ry
     estimated scf accuracy    <       0.22024541 Ry

     iteration #  5     ecut=    60.00 Ry     beta= 0.20
     Davidson diagonalization with overlap
     ethr =  7.54E-05,  avg # of iterations =  1.9

     total cpu time spent up to now is       25.9 secs

     total energy              =   -2749.59067390 Ry
     estimated scf accuracy    <       0.11511693 Ry

     iteration #  6     ecut=    60.00 Ry     beta= 0.20
     Davidson diagonalization with overlap
     ethr =  3.94E-05,  avg # of iterations =  6.5

     total cpu time spent up to now is       31.5 secs

     total energy              =   -2749.59237096 Ry
     estimated scf accuracy    <       0.01901684 Ry

     iteration #  7     ecut=    60.00 Ry     beta= 0.20
     Davidson diagonalization with overlap
     c_bands:  1 eigenvalues not converged
     ethr =  6.51E-06,  avg # of iterations = 18.5

     total cpu time spent up to now is       39.4 secs

     total energy              =   -2749.59120952 Ry
     estimated scf accuracy    <       0.00789035 Ry

     iteration #  8     ecut=    60.00 Ry     beta= 0.20
     Davidson diagonalization with overlap
     ethr =  2.70E-06,  avg # of iterations =  8.0

     total cpu time spent up to now is       46.1 secs

     total energy              =   -2749.59310385 Ry
     estimated scf accuracy    <       0.01144417 Ry

     iteration #  9     ecut=    60.00 Ry     beta= 0.20
     Davidson diagonalization with overlap
     ethr =  2.70E-06,  avg # of iterations =  2.0

     total cpu time spent up to now is       50.1 secs

     total energy              =   -2749.59275823 Ry
     estimated scf accuracy    <       0.00327110 Ry

     iteration # 10     ecut=    60.00 Ry     beta= 0.20
     Davidson diagonalization with overlap
     ethr =  1.12E-06,  avg # of iterations =  2.0

     total cpu time spent up to now is       54.2 secs

     total energy              =   -2749.59279857 Ry
     estimated scf accuracy    <       0.00094931 Ry

     iteration # 11     ecut=    60.00 Ry     beta= 0.20
     Davidson diagonalization with overlap
     ethr =  3.25E-07,  avg # of iterations =  2.0

     total cpu time spent up to now is       58.2 secs

     total energy              =   -2749.59272890 Ry
     estimated scf accuracy    <       0.00036030 Ry

     iteration # 12     ecut=    60.00 Ry     beta= 0.20
     Davidson diagonalization with overlap
     ethr =  1.23E-07,  avg # of iterations =  2.2

     total cpu time spent up to now is       63.1 secs

     total energy              =   -2749.59280026 Ry
     estimated scf accuracy    <       0.00002409 Ry

     iteration # 13     ecut=    60.00 Ry     beta= 0.20
     Davidson diagonalization with overlap
     ethr =  8.25E-09,  avg # of iterations =  4.9

     total cpu time spent up to now is       68.6 secs

     total energy              =   -2749.59279997 Ry
     estimated scf accuracy    <       0.00001227 Ry

     iteration # 14     ecut=    60.00 Ry     beta= 0.20
     Davidson diagonalization with overlap
     ethr =  4.20E-09,  avg # of iterations =  3.0

     total cpu time spent up to now is       73.8 secs

     total energy              =   -2749.59279734 Ry
     estimated scf accuracy    <       0.00001728 Ry

     iteration # 15     ecut=    60.00 Ry     beta= 0.20
     Davidson diagonalization with overlap
     ethr =  4.20E-09,  avg # of iterations =  2.0

     total cpu time spent up to now is       78.6 secs

     total energy              =   -2749.59279978 Ry
     estimated scf accuracy    <       0.00000089 Ry

     iteration # 16     ecut=    60.00 Ry     beta= 0.20
     Davidson diagonalization with overlap
     ethr =  3.06E-10,  avg # of iterations =  2.5

     total cpu time spent up to now is       83.6 secs

     total energy              =   -2749.59279951 Ry
     estimated scf accuracy    <       0.00000142 Ry

     iteration # 17     ecut=    60.00 Ry     beta= 0.20
     Davidson diagonalization with overlap
     ethr =  3.06E-10,  avg # of iterations =  2.0

     total cpu time spent up to now is       88.5 secs

     total energy              =   -2749.59279974 Ry
     estimated scf accuracy    <       0.00000006 Ry

     iteration # 18     ecut=    60.00 Ry     beta= 0.20
     Davidson diagonalization with overlap
     ethr =  2.06E-11,  avg # of iterations =  2.0

     total cpu time spent up to now is       92.5 secs

     total energy              =   -2749.59279974 Ry
     estimated scf accuracy    <       0.00000004 Ry

     iteration # 19     ecut=    60.00 Ry     beta= 0.20
     Davidson diagonalization with overlap
     ethr =  1.52E-11,  avg # of iterations =  2.0

     total cpu time spent up to now is       96.9 secs

     total energy              =   -2749.59279976 Ry
     estimated scf accuracy    <       0.00000001 Ry

     iteration # 20     ecut=    60.00 Ry     beta= 0.20
     Davidson diagonalization with overlap
     ethr =  3.97E-12,  avg # of iterations =  2.2

     total cpu time spent up to now is      101.6 secs

     End of self-consistent calculation

          k = 0.0000 0.0000 0.0000 ( 29423 PWs)   bands (ev):

   -44.6331 -44.5237 -44.2398 -44.0897 -21.2240 -21.1551 -20.9288 -20.8943
   -20.8760 -20.7958 -20.7408 -20.6662 -20.4678 -20.4276 -20.3864 -20.1855
    -5.7375  -4.3769  -4.3245  -4.2648  -4.2008  -4.1088  -3.9991  -3.1968
    -3.1690  -3.1381  -3.1063  -3.0546  -3.0255  -3.0022  -2.9798  -2.9516
    -2.7854  -2.7399  -2.7123  -2.6446  -2.6030  -2.5641  -2.4427  -2.0074
    -1.9749  -1.9687  -1.8367  -1.7699  -1.7288  -1.7130  -1.6762  -1.6527
     3.1039   3.3976   3.4560   3.7779   4.4411   4.4690   4.4828   5.2769
     5.2980   5.3162   5.3470   5.3661   5.3702   5.3819   5.4108   5.6326
     5.7029   5.7218   5.7434   5.7749   5.7959   5.8386   5.9402   5.9599
     5.9941   6.0216   6.0766   6.1961   6.2882   6.3798   6.4693   7.0920
     7.1096   7.1196   7.1556   7.1602   7.1948   7.2339   7.2667   7.3502
     7.3599   7.3850   7.4576   7.4885   7.5052   7.5116   7.5389   7.5514
     7.6811   7.7926   7.8327   7.8448   8.1107   8.3459   8.5723   8.6729
     8.6842   8.7544   8.7888   8.8889   8.9462   9.1296   9.3466   9.4068
     9.4647   9.5478   9.5910   9.6316   9.6456   9.6555   9.6834   9.6867
     9.7705   9.7889   9.8231   9.8564   9.8749   9.9090   9.9535  10.0051
    10.0719  10.1446  10.1505  10.1640  10.2044  10.2216  10.2293  10.2457
    10.2539  10.3117  10.3251  10.3392  10.3603  11.2805  11.2978  11.3320
    12.6511  13.0301  13.3573  13.6903  13.9103  14.0012  14.2277  14.4748
    14.7972  14.8315  15.4674  15.5850  15.6944  16.0453  16.0830  16.2044
    16.2645  16.3484  16.3960  16.4977  16.5127  16.8586  17.0619  17.2206
    17.2865  17.3391  17.4428  17.4938  17.6447  18.0381  18.3725

          k = 0.0000 0.0000-0.5000 ( 29350 PWs)   bands (ev):

   -44.6331 -44.5237 -44.2398 -44.0897 -21.2240 -21.1551 -20.9288 -20.8943
   -20.8760 -20.7957 -20.7408 -20.6662 -20.4677 -20.4277 -20.3863 -20.1855
    -5.3629  -5.3079  -4.0521  -3.9737  -3.9627  -3.9329  -3.8925  -3.7844
    -3.7103  -3.5518  -2.9918  -2.9393  -2.9320  -2.8852  -2.8369  -2.8234
    -2.7578  -2.7033  -2.6227  -2.5359  -2.2383  -2.2258  -2.1899  -2.1135
    -2.0668  -1.9996  -1.9660  -1.9058  -1.8502  -1.8275  -1.8198  -1.7513
     3.9015   3.9529   4.0171   4.0963   4.2983   4.3601   4.4365   4.5293
     4.7980   4.8256   4.8662   4.8912   5.0872   5.1215   5.1461   5.2012
     5.2684   5.3505   5.4903   5.6843   5.7883   5.8283   5.9935   6.0286
     6.2932   6.3225   6.3786   6.3996   6.4175   6.5569   6.5705   6.5961
     6.6704   6.7666   6.8353   6.9134   6.9467   6.9995   7.5905   7.5941
     7.6964   7.7690   7.7924   7.8741   7.9192   8.0749   8.4856   8.5940
     8.6087   8.6498   8.6823   8.7006   8.7196   8.7513   8.7879   8.7913
     8.8217   8.8543   8.8583   8.9004   8.9083   8.9353   8.9537   8.9715
     9.0231   9.0393   9.1107   9.1210   9.1785   9.1959   9.2664   9.2951
     9.3860   9.4793   9.5643   9.6759   9.7668   9.8068   9.9085   9.9705
     9.9893  10.0391  10.1137  10.1308  10.1594  10.1795  10.1885  10.2182
    10.2512  10.2696  10.3130  10.3595  10.7346  10.7569  10.8149  10.8250
    13.2673  13.4542  13.5294  13.5706  13.8531  13.9332  14.4083  14.4670
    14.5993  14.7472  15.4537  15.6485  16.0221  16.1614  16.3033  16.3460
    16.4866  16.5674  16.6076  16.7154  16.8940  17.0774  17.2729  17.3732
    17.8405  17.9767  18.0647  18.1432  18.2771  18.3195  18.3419

          k = 0.0000-0.5000-0.5000 ( 29520 PWs)   bands (ev):

   -44.6331 -44.5237 -44.2398 -44.0897 -21.2240 -21.1551 -20.9288 -20.8944
   -20.8760 -20.7957 -20.7408 -20.6663 -20.4677 -20.4277 -20.3864 -20.1855
    -5.0831  -4.9680  -4.9220  -4.7698  -3.7469  -3.6371  -3.6311  -3.5671
    -3.5072  -3.4898  -3.4525  -3.3009  -2.8136  -2.6820  -2.5939  -2.5692
    -2.5329  -2.5039  -2.4336  -2.4013  -2.3735  -2.3300  -2.3063  -2.2390
    -2.2273  -2.1249  -2.0368  -1.9683  -1.9551  -1.8434  -1.7902  -1.7070
     3.9137   4.0512   4.0746   4.2277   4.2761   4.3355   4.4789   4.6322
     4.8890   5.1007   5.1299   5.1619   5.1976   5.2212   5.2639   5.2785
     5.3362   5.3655   5.3932   5.4243   5.4758   5.5094   5.5410   5.6505
     5.6634   5.6970   5.7955   5.8177   6.1027   6.3195   6.5050   6.7170
     7.1701   7.2981   7.4933   7.5687   7.6277   7.7281   7.7501   7.7830
     7.8031   7.8255   7.8707   7.9816   8.1225   8.1665   8.1870   8.2821
     8.3001   8.3429   8.3980   8.4237   8.4649   8.5505   8.5608   8.5867
     8.6062   8.6457   8.7207   8.8903   9.0524   9.0900   9.1112   9.1446
     9.1639   9.2432   9.3051   9.3623   9.4166   9.4361   9.5033   9.5303
     9.5497   9.6217   9.6398   9.6569   9.6862   9.7339   9.7576   9.7716
     9.8166   9.8307   9.8976   9.9695   9.9794  10.0134  10.0480  10.1803
    10.1951  10.2739  10.2866  10.3237  10.8799  10.9130  10.9690  11.0164
    13.2919  13.4647  13.7717  13.8036  13.8780  13.9504  14.3690  14.4128
    14.4601  14.7784  15.4670  15.5539  16.1339  16.2396  16.3190  16.3947
    16.4104  16.6740  16.8824  17.0517  17.1186  17.2636  17.4200  17.5327
    17.6579  17.8050  17.8142  18.0412  18.1089  18.1764  18.2373

          k =-0.5000-0.5000-0.5000 ( 29464 PWs)   bands (ev):

   -44.6331 -44.5237 -44.2398 -44.0897 -21.2240 -21.1551 -20.9288 -20.8944
   -20.8760 -20.7957 -20.7408 -20.6662 -20.4677 -20.4277 -20.3864 -20.1855
    -4.7667  -4.7158  -4.6694  -4.6376  -4.5594  -4.4439  -4.3585  -4.1447
    -2.8260  -2.7454  -2.7082  -2.6410  -2.5873  -2.5245  -2.5075  -2.4748
    -2.4522  -2.4420  -2.4129  -2.4111  -2.3870  -2.3718  -2.3326  -2.3198
    -2.2892  -2.2714  -2.2051  -2.1840  -2.1553  -2.0876  -2.0400  -1.8878
     4.3918   4.4323   4.5144   4.5452   4.5642   4.5990   4.6155   4.6338
     4.6429   4.6608   4.6947   4.7068   4.7857   4.7956   4.8124   4.8485
     4.8692   4.8824   4.9860   5.1128   5.3020   5.4907   5.7072   5.7402
     6.8797   6.9053   6.9412   6.9743   7.0148   7.0229   7.0332   7.0803
     7.1417   7.1762   7.2041   7.2641   7.3310   7.4033   7.4483   7.4567
     7.5007   7.5320   7.5970   7.6072   7.6309   7.7126   7.7217   7.7906
     7.8453   7.8659   7.9051   7.9759   8.0328   8.0764   8.1763   8.4170
     8.6954   8.7638   8.9120   8.9692   9.0366   9.0732   9.1437   9.2058
     9.2123   9.2486   9.2756   9.2911   9.3334   9.3621   9.4069   9.4473
     9.5054   9.5619   9.6238   9.6520   9.6811   9.7967   9.9043   9.9391
    10.2653  10.3157  10.3615  10.4366  10.5334  10.5626  10.6188  10.6345
    10.6771  10.6857  10.7081  10.7161  10.7205  10.7464  10.7505  10.7671
    13.2783  13.4113  13.6447  13.7351  13.8687  13.9023  14.2756  14.3013
    14.3912  14.7005  15.3099  15.5548  16.3502  16.4835  16.4977  16.5824
    16.7279  16.8082  17.0918  17.2413  17.3188  17.3650  17.4278  17.4622
    17.4972  17.5045  17.5397  17.5664  17.5926  17.6224  17.8121

          k =-0.5000 0.0000 0.0000 ( 29350 PWs)   bands (ev):

   -44.6331 -44.5237 -44.2398 -44.0897 -21.2240 -21.1551 -20.9288 -20.8943
   -20.8759 -20.7958 -20.7408 -20.6662 -20.4678 -20.4276 -20.3864 -20.1855
    -5.4265  -5.2161  -4.0486  -4.0143  -4.0112  -3.9293  -3.9183  -3.8278
    -3.6503  -3.4495  -3.1047  -2.9731  -2.9361  -2.9004  -2.8379  -2.8119
    -2.7144  -2.6521  -2.5752  -2.5303  -2.2161  -2.1816  -2.1584  -2.1408
    -2.0812  -2.0654  -2.0146  -1.9171  -1.8806  -1.8448  -1.7665  -1.7125
     3.8643   4.0071   4.0751   4.1530   4.2197   4.2566   4.3010   4.6103
     4.6147   4.8446   5.0606   5.0882   5.1189   5.1252   5.1711   5.1723
     5.2699   5.3207   5.5100   5.5675   5.6832   5.8484   6.0989   6.1204
     6.2262   6.2449   6.3132   6.3903   6.4960   6.5114   6.5794   6.6227
     6.6631   6.6885   6.7676   6.8412   6.9780   7.1687   7.5272   7.5330
     7.7661   7.8593   7.9419   7.9584   8.0507   8.1539   8.2504   8.5179
     8.5647   8.6257   8.6711   8.6996   8.7044   8.7361   8.7626   8.7801
     8.8122   8.8281   8.8397   8.8480   8.8753   8.9205   8.9394   8.9575
     8.9764   9.0348   9.0809   9.1319   9.1925   9.2427   9.3042   9.3128
     9.3563   9.4897   9.5253   9.6298   9.7964   9.8460   9.9246   9.9667
    10.0577  10.0609  10.1125  10.1389  10.1711  10.1958  10.2138  10.2426
    10.2632  10.3006  10.3183  10.3650  10.7175  10.7283  10.7951  10.8878
    12.6553  13.3958  13.6988  13.8656  13.9881  14.0488  14.3472  14.5259
    14.7957  14.8343  15.4473  15.7069  16.0197  16.1124  16.2155  16.3608
    16.4340  16.4822  16.5488  16.8208  16.9837  17.1196  17.1800  17.4279
    17.4582  17.6319  17.8873  18.0836  18.3001  18.3230  18.3471

          k = 0.0000-0.5000 0.0000 ( 29350 PWs)   bands (ev):

   -44.6331 -44.5237 -44.2398 -44.0897 -21.2240 -21.1551 -20.9288 -20.8943
   -20.8760 -20.7958 -20.7407 -20.6662 -20.4678 -20.4276 -20.3864 -20.1855
    -5.4136  -5.2417  -4.0997  -4.0001  -3.9610  -3.9307  -3.8447  -3.7563
    -3.7259  -3.5418  -3.0338  -2.9773  -2.9340  -2.9168  -2.9056  -2.7780
    -2.7036  -2.6387  -2.5863  -2.5569  -2.2247  -2.1947  -2.1557  -2.1356
    -2.0795  -2.0492  -2.0142  -1.9086  -1.8830  -1.8717  -1.7561  -1.6877
     3.8534   3.9940   4.0322   4.1610   4.2464   4.3496   4.4529   4.4845
     4.7100   4.7231   4.9598   4.9884   5.0727   5.1019   5.1392   5.2009
     5.3641   5.4446   5.4877   5.5454   5.6955   5.8175   5.9667   6.1550
     6.2760   6.3473   6.3939   6.4441   6.4714   6.4974   6.5622   6.6328
     6.6503   6.6889   6.8025   6.8945   6.9728   6.9839   7.6209   7.6310
     7.7293   7.7564   7.8145   7.8450   7.9982   8.0866   8.3349   8.5441
     8.6273   8.6348   8.6515   8.6753   8.7209   8.7926   8.8284   8.8435
     8.8504   8.8589   8.8675   8.8854   8.8906   8.9290   8.9540   8.9797
     9.0123   9.0455   9.0897   9.1120   9.1215   9.1653   9.2551   9.3451
     9.3880   9.5152   9.6224   9.6962   9.7875   9.8726   9.9147   9.9491
    10.0021  10.0317  10.0689  10.1009  10.1428  10.1826  10.1897  10.2220
    10.2398  10.2689  10.3335  10.3414  10.7351  10.7532  10.7874  10.8399
    13.0531  13.2158  13.6382  13.7682  13.9450  14.0113  14.3976  14.4846
    14.5856  14.7726  15.5844  15.6620  16.0226  16.1994  16.2955  16.3376
    16.4618  16.5668  16.6326  16.7338  16.9773  17.0249  17.1460  17.3755
    17.8697  17.9651  18.0386  18.0862  18.1381  18.2809  18.3437

          k =-0.5000 0.0000 0.5000 ( 29520 PWs)   bands (ev):

   -44.6331 -44.5237 -44.2398 -44.0897 -21.2240 -21.1551 -20.9288 -20.8944
   -20.8760 -20.7957 -20.7408 -20.6662 -20.4677 -20.4277 -20.3864 -20.1856
    -5.0691  -5.0183  -4.8687  -4.7745  -3.7311  -3.6670  -3.6237  -3.5739
    -3.5441  -3.4888  -3.4349  -3.3433  -2.7366  -2.7052  -2.6344  -2.5943
    -2.5595  -2.4656  -2.4251  -2.4157  -2.2960  -2.2947  -2.2605  -2.2433
    -2.1511  -2.1298  -2.0820  -2.0250  -1.9411  -1.8739  -1.7825  -1.7568
     3.9854   4.0510   4.0806   4.0907   4.2940   4.3412   4.4847   4.7206
     4.9570   5.0212   5.1268   5.1619   5.1998   5.2377   5.2442   5.3056
     5.3294   5.3680   5.3760   5.4126   5.4717   5.5047   5.5249   5.5940
     5.6267   5.7072   5.8194   5.9780   6.0388   6.2059   6.5013   6.6593
     7.3196   7.3747   7.4483   7.5195   7.6707   7.7404   7.7582   7.7709
     7.8038   7.8358   7.8515   7.8874   8.0129   8.0474   8.2141   8.3130
     8.3395   8.3982   8.4171   8.4532   8.4685   8.5682   8.5879   8.6198
     8.6569   8.7636   8.7959   8.8502   8.9886   9.0670   9.1030   9.1416
     9.1837   9.2457   9.2811   9.3208   9.3562   9.4015   9.4503   9.4899
     9.5881   9.6200   9.6918   9.7123   9.7162   9.7718   9.7809   9.8239
     9.8510   9.8786   9.9197   9.9484   9.9873  10.0455  10.1129  10.1206
    10.1538  10.1780  10.2070  10.2351  10.8319  10.8665  11.0200  11.0457
    13.2659  13.4179  13.6807  13.8002  13.8378  13.9939  14.3746  14.4217
    14.6071  14.7750  15.2972  15.6684  16.0507  16.1780  16.4490  16.5003
    16.5853  16.7065  16.9185  17.0757  17.1897  17.3296  17.4260  17.5224
    17.6664  17.7519  17.8676  17.9209  17.9586  18.1574  18.2860

          k =-0.5000 0.5000 0.0000 ( 29520 PWs)   bands (ev):

   -44.6331 -44.5237 -44.2398 -44.0897 -21.2240 -21.1551 -20.9288 -20.8943
   -20.8760 -20.7958 -20.7408 -20.6662 -20.4678 -20.4276 -20.3864 -20.1855
    -5.1106  -4.9590  -4.9200  -4.7097  -3.7499  -3.6930  -3.6070  -3.5832
    -3.5478  -3.5226  -3.4355  -3.3663  -2.7106  -2.6607  -2.6187  -2.5479
    -2.5339  -2.5163  -2.4855  -2.3609  -2.3251  -2.2629  -2.2358  -2.1986
    -2.1791  -2.1480  -2.1165  -2.0570  -2.0037  -1.8284  -1.7932  -1.7179
     4.0097   4.0405   4.1218   4.1908   4.2860   4.3542   4.4236   4.6000
     4.9016   5.0879   5.1204   5.1689   5.1869   5.2490   5.2555   5.2754
     5.2861   5.3227   5.3379   5.3949   5.4210   5.4783   5.5343   5.6452
     5.6812   5.7609   5.7719   5.9581   6.0313   6.3092   6.5281   6.6720
     7.2516   7.3826   7.5085   7.6092   7.6716   7.7022   7.7307   7.7955
     7.8228   7.8275   7.8999   7.9625   7.9788   8.1452   8.2190   8.2387
     8.3355   8.3486   8.3802   8.4432   8.4628   8.5420   8.6183   8.6590
     8.6990   8.7423   8.7708   8.8149   8.9037   9.0047   9.0827   9.1091
     9.1762   9.2588   9.2834   9.3445   9.3976   9.4366   9.4561   9.5338
     9.5886   9.6039   9.6390   9.7038   9.7528   9.7726   9.7889   9.8103
     9.8197   9.8387   9.9573   9.9996  10.0333  10.0554  10.0859  10.1345
    10.1375  10.1799  10.2158  10.2386  10.8156  10.8682  10.9988  11.0487
    13.2157  13.3917  13.6477  13.8417  13.8986  14.0035  14.2949  14.4955
    14.5978  14.6663  15.4540  15.6431  15.9988  16.2301  16.4324  16.4633
    16.6564  16.8088  16.9266  16.9690  17.1757  17.3020  17.3947  17.4893
    17.7214  17.8131  17.8680  17.9136  17.9880  18.1870  18.2636

     the Fermi energy is    13.4721 ev

!    total energy              =   -2749.59279974 Ry
     total all-electron energy =    -23938.843827 Ry
     estimated scf accuracy    <          5.4E-09 Ry
     smearing contrib. (-TS)   =      -0.00144956 Ry
     internal energy E=F+TS    =   -2749.59135018 Ry

     The total energy is F=E-TS. E is the sum of the following terms:
     one-electron contribution =    -201.19450738 Ry
     hartree contribution      =     311.62414925 Ry
     xc contribution           =    -339.15171740 Ry
     ewald contribution        =   -1033.95939686 Ry
     one-center paw contrib.   =   -1486.90987778 Ry

     convergence has been achieved in  20 iterations
 
     init_run     :      2.30s CPU      2.42s WALL (       1 calls)
     electrons    :     96.55s CPU     98.90s WALL (       1 calls)

     Called by init_run:
     wfcinit      :      1.86s CPU      1.94s WALL (       1 calls)
     potinit      :      0.21s CPU      0.22s WALL (       1 calls)
     hinit0       :      0.12s CPU      0.12s WALL (       1 calls)

     Called by electrons:
     c_bands      :     80.39s CPU     81.85s WALL (      20 calls)
     sum_band     :     10.29s CPU     10.74s WALL (      20 calls)
     v_of_rho     :      0.73s CPU      0.75s WALL (      21 calls)
     newd         :      1.18s CPU      1.45s WALL (      21 calls)
     PAW_pot      :      3.27s CPU      3.34s WALL (      21 calls)
     mix_rho      :      0.89s CPU      0.98s WALL (      20 calls)

     Called by c_bands:
     init_us_2    :      1.56s CPU      1.58s WALL (      82 calls)
     init_us_2:cp :      1.56s CPU      1.58s WALL (      82 calls)
     cegterg      :     69.38s CPU     70.77s WALL (      40 calls)

     Called by *egterg:
     cdiaghg      :      5.52s CPU      5.60s WALL (     199 calls)
     h_psi        :     38.71s CPU     39.31s WALL (     201 calls)
     s_psi        :     10.09s CPU     10.17s WALL (     201 calls)
     g_psi        :      0.17s CPU      0.17s WALL (     159 calls)

     Called by h_psi:
     h_psi:calbec :      9.14s CPU      9.21s WALL (     201 calls)
     vloc_psi     :     19.23s CPU     19.55s WALL (     201 calls)
     add_vuspsi   :      9.99s CPU     10.07s WALL (     201 calls)

     General routines
     calbec       :     12.61s CPU     12.70s WALL (     241 calls)
     fft          :      0.31s CPU      0.32s WALL (     231 calls)
     ffts         :      0.45s CPU      0.45s WALL (     417 calls)
     fftw         :     19.62s CPU     19.96s WALL (   42322 calls)
 
     Parallel routines
 
     PWSCF        :   1m39.09s CPU   1m41.68s WALL

 
   This run was terminated on:  17:14:25  12May2026            

=------------------------------------------------------------------------------=
   JOB DONE.
=------------------------------------------------------------------------------=
