
     Program PWSCF v.7.1 starts on 12May2026 at 17:12:44 

     This program is part of the open-source Quantum ESPRESSO suite
     for quantum simulation of materials; please cite
         "P. Giannozzi et al., J. Phys.:Condens. Matter 21 395502 (2009);
         "P. Giannozzi et al., J. Phys.:Condens. Matter 29 465901 (2017);
         "P. Giannozzi et al., J. Chem. Phys. 152 154105 (2020);
          URL http://www.quantum-espresso.org", 
     in publications or presentations arising from this work. More details at
     http://www.quantum-espresso.org/quote

     Parallel version (MPI & OpenMP), running on      32 processor cores
     Number of MPI processes:                32
     Threads/MPI process:                     1

     MPI processes distributed on     1 nodes
     91358 MiB available memory on the printing compute node when the environment starts
 
     Reading input from TiAlN_x0875finalrelaxedresult81415875.in

     Current dimensions of program PWSCF are:
     Max number of different atomic species (ntypx) = 10
     Max number of k-points (npk) = 150000
     Max angular momentum in pseudopotentials (lmaxx) =  4
     file Al.pbe-n-kjpaw_psl.1.0.0.UPF: wavefunction(s)  3S 3P renormalized
     file N.pbe-n-kjpaw_psl.1.0.0.UPF: wavefunction(s)  2S renormalized
     file Ti.pbe-spn-kjpaw_psl.1.0.0.UPF: wavefunction(s)  3S 3P 3D renormalized
 
     K-points division:     npool     =       4
     R & G space division:  proc/nbgrp/npool/nimage =       8
     Subspace diagonalization in iterative solution of the eigenvalue problem:
     one sub-group per band group will be used
     scalapack distributed-memory algorithm (size of sub-group:  2*  2 procs)

 
     Parallelization info
     --------------------
     sticks:   dense  smooth     PW     G-vecs:    dense   smooth      PW
     Min         562     562    153                28558    28558    4083
     Max         563     563    154                28563    28563    4086
     Sum        4501    4501   1229               228487   228487   32675
 
     Using Slab Decomposition
 


     bravais-lattice index     =            0
     lattice parameter (alat)  =      15.3854  a.u.
     unit-cell volume          =    3641.8654 (a.u.)^3
     number of atoms/cell      =           64
     number of atomic types    =            3
     number of electrons       =       292.00
     number of Kohn-Sham states=          175
     kinetic-energy cutoff     =      60.0000  Ry
     charge density cutoff     =     240.0000  Ry
     scf convergence threshold =      1.0E-08
     mixing beta               =       0.2000
     number of iterations used =            8  local-TF  mixing
     Exchange-correlation= SLA  PW   PBX  PBC
                           (   1   4   3   4   0   0   0)

     celldm(1)=  15.385371  celldm(2)=   0.000000  celldm(3)=   0.000000
     celldm(4)=   0.000000  celldm(5)=   0.000000  celldm(6)=   0.000000

     crystal axes: (cart. coord. in units of alat)
               a(1) = (   1.000000   0.000000   0.000000 )  
               a(2) = (   0.000000   1.000000   0.000000 )  
               a(3) = (   0.000000   0.000000   1.000000 )  

     reciprocal axes: (cart. coord. in units 2 pi/alat)
               b(1) = (  1.000000  0.000000  0.000000 )  
               b(2) = (  0.000000  1.000000  0.000000 )  
               b(3) = (  0.000000  0.000000  1.000000 )  


     PseudoPot. # 1 for Al read from file:
     ../../../pseudo/Al.pbe-n-kjpaw_psl.1.0.0.UPF
     MD5 check sum: 502b6b27b9c6270cab5dd1084b96fa6d
     Pseudo is Projector augmented-wave + core cor, Zval =  3.0
     Generated using &quot;atomic&quot; code by A. Dal Corso  v.6.3
     Shape of augmentation charge: PSQ
     Using radial grid of 1135 points,  6 beta functions with: 
                l(1) =   0
                l(2) =   0
                l(3) =   1
                l(4) =   1
                l(5) =   2
                l(6) =   2
     Q(r) pseudized with 0 coefficients 


     PseudoPot. # 2 for N  read from file:
     ../../../pseudo/N.pbe-n-kjpaw_psl.1.0.0.UPF
     MD5 check sum: 14c48229446f9f2d411169a3abcbc3fa
     Pseudo is Projector augmented-wave + core cor, Zval =  5.0
     Generated using &quot;atomic&quot; code by A. Dal Corso  v.6.3
     Shape of augmentation charge: PSQ
     Using radial grid of 1085 points,  4 beta functions with: 
                l(1) =   0
                l(2) =   0
                l(3) =   1
                l(4) =   1
     Q(r) pseudized with 0 coefficients 


     PseudoPot. # 3 for Ti read from file:
     ../../../pseudo/Ti.pbe-spn-kjpaw_psl.1.0.0.UPF
     MD5 check sum: 01f69b0d8ba4438b2e03ac6ea4af1c0b
     Pseudo is Projector augmented-wave + core cor, Zval = 12.0
     Generated using &quot;atomic&quot; code by A. Dal Corso  v.6.2.2
     Shape of augmentation charge: PSQ
     Using radial grid of 1177 points,  6 beta functions with: 
                l(1) =   0
                l(2) =   0
                l(3) =   1
                l(4) =   1
                l(5) =   2
                l(6) =   2
     Q(r) pseudized with 0 coefficients 


     atomic species   valence    mass     pseudopotential
        Al             3.00    26.98200     Al( 1.00)
        N              5.00    14.00700     N ( 1.00)
        Ti            12.00    47.86700     Ti( 1.00)

     No symmetry found



   Cartesian axes

     site n.     atom                  positions (alat units)
         1           Al  tau(   1) = (  -0.0025045  -0.0020692   0.0026060  )
         2           N   tau(   2) = (   0.2527954  -0.0097272   0.0094151  )
         3           Al  tau(   3) = (  -0.0042942   0.2479089   0.2519818  )
         4           N   tau(   4) = (   0.2511641   0.2408308   0.2614288  )
         5           Al  tau(   5) = (   0.2525148  -0.0025447   0.2512592  )
         6           N   tau(   6) = (  -0.0029020  -0.0002141   0.2461857  )
         7           Ti  tau(   7) = (   0.2507948   0.2511513   0.0005226  )
         8           N   tau(   8) = (  -0.0063069   0.2532917   0.0007251  )
         9           Ti  tau(   9) = (   0.0105336   0.0008874   0.5127185  )
        10           N   tau(  10) = (   0.2624418  -0.0031816   0.4943837  )
        11           Al  tau(  11) = (  -0.0047351   0.2563918   0.7550634  )
        12           N   tau(  12) = (   0.2503315   0.2607874   0.7425225  )
        13           Ti  tau(  13) = (   0.2433004   0.0103067   0.7548101  )
        14           N   tau(  14) = (  -0.0116067   0.0014379   0.7662307  )
        15           Al  tau(  15) = (   0.2546315   0.2546318   0.5016581  )
        16           N   tau(  16) = (  -0.0012892   0.2561905   0.5029089  )
        17           Al  tau(  17) = (  -0.0046048   0.5047281  -0.0018256  )
        18           N   tau(  18) = (   0.2510531   0.5132938  -0.0107980  )
        19           Al  tau(  19) = (   0.0005429   0.7549757   0.2508628  )
        20           N   tau(  20) = (   0.2511938   0.7564361   0.2529838  )
        21           Ti  tau(  21) = (   0.2517636   0.4915195   0.2387093  )
        22           N   tau(  22) = (  -0.0042587   0.5012416   0.2499155  )
        23           Al  tau(  23) = (   0.2519043   0.7551808  -0.0008058  )
        24           N   tau(  24) = (  -0.0017077   0.7524335   0.0002105  )
        25           Al  tau(  25) = (   0.0001237   0.5031893   0.5027396  )
        26           N   tau(  26) = (   0.2516404   0.5041563   0.5052089  )
        27           Al  tau(  27) = (  -0.0007185   0.7505030   0.7560685  )
        28           N   tau(  28) = (   0.2505537   0.7505663   0.7502823  )
        29           Al  tau(  29) = (   0.2519562   0.5046603   0.7516073  )
        30           N   tau(  30) = (  -0.0025073   0.5028274   0.7540934  )
        31           Al  tau(  31) = (   0.2544292   0.7506187   0.5011150  )
        32           N   tau(  32) = (  -0.0004282   0.7495751   0.5034422  )
        33           Al  tau(  33) = (   0.5038096  -0.0020698   0.0005207  )
        34           N   tau(  34) = (   0.7518548  -0.0004150   0.0024016  )
        35           Al  tau(  35) = (   0.5067706   0.2472498   0.2525504  )
        36           N   tau(  36) = (   0.7538724   0.2515533   0.2522291  )
        37           Al  tau(  37) = (   0.7539350  -0.0016416   0.2527161  )
        38           N   tau(  38) = (   0.5062048  -0.0004701   0.2499452  )
        39           Al  tau(  39) = (   0.7529833   0.2502081   0.0003817  )
        40           N   tau(  40) = (   0.5077214   0.2524226  -0.0000202  )
        41           Al  tau(  41) = (   0.5033711  -0.0008800   0.5031323  )
        42           N   tau(  42) = (   0.7476558  -0.0000070   0.5024182  )
        43           Al  tau(  43) = (   0.5056651   0.2516971   0.7525800  )
        44           N   tau(  44) = (   0.7535694   0.2529082   0.7532685  )
        45           Al  tau(  45) = (   0.7517440  -0.0005048   0.7546951  )
        46           N   tau(  46) = (   0.5088328   0.0012004   0.7564634  )
        47           Al  tau(  47) = (   0.7523615   0.2508444   0.5025572  )
        48           N   tau(  48) = (   0.5041566   0.2528866   0.5023532  )
        49           Al  tau(  49) = (   0.5068147   0.5045094  -0.0032176  )
        50           N   tau(  50) = (   0.7534698   0.5031372  -0.0004560  )
        51           Al  tau(  51) = (   0.5023683   0.7551177   0.2512361  )
        52           N   tau(  52) = (   0.7542475   0.7524730   0.2517700  )
        53           Al  tau(  53) = (   0.7535701   0.5030324   0.2516885  )
        54           N   tau(  54) = (   0.5067561   0.5010222   0.2496423  )
        55           Al  tau(  55) = (   0.7530292   0.7548642   0.0003398  )
        56           N   tau(  56) = (   0.5039981   0.7524648  -0.0001553  )
        57           Al  tau(  57) = (   0.5031687   0.5031503   0.5031522  )
        58           N   tau(  58) = (   0.7537948   0.5026263   0.5021714  )
        59           Al  tau(  59) = (   0.5016708   0.7552478   0.7535795  )
        60           N   tau(  60) = (   0.7537259   0.7531721   0.7536915  )
        61           Al  tau(  61) = (   0.7524520   0.5039414   0.7524261  )
        62           N   tau(  62) = (   0.5042062   0.5026439   0.7535056  )
        63           Al  tau(  63) = (   0.7527737   0.7543957   0.5024630  )
        64           N   tau(  64) = (   0.5042440   0.7518376   0.5023437  )

     number of k points=     8  Gaussian smearing, width (Ry)=  0.0050
                       cart. coord. in units 2pi/alat
        k(    1) = (   0.0000000   0.0000000   0.0000000), wk =   0.2500000
        k(    2) = (   0.0000000   0.0000000  -0.5000000), wk =   0.2500000
        k(    3) = (   0.0000000  -0.5000000  -0.5000000), wk =   0.2500000
        k(    4) = (  -0.5000000  -0.5000000  -0.5000000), wk =   0.2500000
        k(    5) = (  -0.5000000   0.0000000   0.0000000), wk =   0.2500000
        k(    6) = (   0.0000000  -0.5000000   0.0000000), wk =   0.2500000
        k(    7) = (  -0.5000000   0.0000000   0.5000000), wk =   0.2500000
        k(    8) = (  -0.5000000   0.5000000   0.0000000), wk =   0.2500000

     Dense  grid:   228487 G-vectors     FFT dimensions: (  75,  75,  75)

     Estimated max dynamical RAM per process >     156.03 MB

     Estimated total dynamical RAM >       4.71 GB

     Check: negative core charge=   -0.000009

     Initial potential from superposition of free atoms

     starting charge     291.9297, renormalised to     292.0000
     Starting wfcs are  280 randomized atomic wfcs
     Checking if some PAW data can be deallocated... 

     total cpu time spent up to now is        3.1 secs

     Self-consistent Calculation

     iteration #  1     ecut=    60.00 Ry     beta= 0.20
     Davidson diagonalization with overlap
     ethr =  1.00E-02,  avg # of iterations =  2.2

     total cpu time spent up to now is        8.4 secs

     total energy              =   -2751.43530214 Ry
     estimated scf accuracy    <      15.18378525 Ry

     iteration #  2     ecut=    60.00 Ry     beta= 0.20
     Davidson diagonalization with overlap
     ethr =  5.20E-03,  avg # of iterations =  1.0

     total cpu time spent up to now is       12.5 secs

     total energy              =   -2747.84133469 Ry
     estimated scf accuracy    <       8.46004006 Ry

     iteration #  3     ecut=    60.00 Ry     beta= 0.20
     Davidson diagonalization with overlap
     ethr =  2.90E-03,  avg # of iterations =  2.0

     total cpu time spent up to now is       18.0 secs

     total energy              =   -2749.57988663 Ry
     estimated scf accuracy    <       0.49621608 Ry

     iteration #  4     ecut=    60.00 Ry     beta= 0.20
     Davidson diagonalization with overlap
     ethr =  1.70E-04,  avg # of iterations = 12.5

     total cpu time spent up to now is       24.7 secs

     total energy              =   -2749.57881909 Ry
     estimated scf accuracy    <       0.24030674 Ry

     iteration #  5     ecut=    60.00 Ry     beta= 0.20
     Davidson diagonalization with overlap
     ethr =  8.23E-05,  avg # of iterations =  1.6

     total cpu time spent up to now is       29.1 secs

     total energy              =   -2749.56353340 Ry
     estimated scf accuracy    <       0.13273125 Ry

     iteration #  6     ecut=    60.00 Ry     beta= 0.20
     Davidson diagonalization with overlap
     ethr =  4.55E-05,  avg # of iterations =  5.6

     total cpu time spent up to now is       34.9 secs

     total energy              =   -2749.56630709 Ry
     estimated scf accuracy    <       0.03115036 Ry

     iteration #  7     ecut=    60.00 Ry     beta= 0.20
     Davidson diagonalization with overlap
     c_bands:  1 eigenvalues not converged
     ethr =  1.07E-05,  avg # of iterations = 19.6

     total cpu time spent up to now is       41.9 secs

     total energy              =   -2749.56402235 Ry
     estimated scf accuracy    <       0.00873113 Ry

     iteration #  8     ecut=    60.00 Ry     beta= 0.20
     Davidson diagonalization with overlap
     c_bands:  1 eigenvalues not converged
     ethr =  2.99E-06,  avg # of iterations =  9.6

     total cpu time spent up to now is       50.1 secs

     total energy              =   -2749.56495549 Ry
     estimated scf accuracy    <       0.01311576 Ry

     iteration #  9     ecut=    60.00 Ry     beta= 0.20
     Davidson diagonalization with overlap
     c_bands:  1 eigenvalues not converged
     ethr =  2.99E-06,  avg # of iterations =  6.5

     total cpu time spent up to now is       56.9 secs

     total energy              =   -2749.56580046 Ry
     estimated scf accuracy    <       0.00141841 Ry

     iteration # 10     ecut=    60.00 Ry     beta= 0.20
     Davidson diagonalization with overlap
     ethr =  4.86E-07,  avg # of iterations =  2.1

     total cpu time spent up to now is       61.7 secs

     total energy              =   -2749.56593348 Ry
     estimated scf accuracy    <       0.00048057 Ry

     iteration # 11     ecut=    60.00 Ry     beta= 0.20
     Davidson diagonalization with overlap
     ethr =  1.65E-07,  avg # of iterations =  2.1

     total cpu time spent up to now is       66.8 secs

     total energy              =   -2749.56572463 Ry
     estimated scf accuracy    <       0.00052668 Ry

     iteration # 12     ecut=    60.00 Ry     beta= 0.20
     Davidson diagonalization with overlap
     ethr =  1.65E-07,  avg # of iterations =  2.0

     total cpu time spent up to now is       72.3 secs

     total energy              =   -2749.56583897 Ry
     estimated scf accuracy    <       0.00004246 Ry

     iteration # 13     ecut=    60.00 Ry     beta= 0.20
     Davidson diagonalization with overlap
     ethr =  1.45E-08,  avg # of iterations =  2.0

     total cpu time spent up to now is       77.6 secs

     total energy              =   -2749.56583916 Ry
     estimated scf accuracy    <       0.00001457 Ry

     iteration # 14     ecut=    60.00 Ry     beta= 0.20
     Davidson diagonalization with overlap
     ethr =  4.99E-09,  avg # of iterations =  2.2

     total cpu time spent up to now is       82.8 secs

     total energy              =   -2749.56583927 Ry
     estimated scf accuracy    <       0.00000444 Ry

     iteration # 15     ecut=    60.00 Ry     beta= 0.20
     Davidson diagonalization with overlap
     ethr =  1.52E-09,  avg # of iterations =  2.4

     total cpu time spent up to now is       87.5 secs

     total energy              =   -2749.56583913 Ry
     estimated scf accuracy    <       0.00000155 Ry

     iteration # 16     ecut=    60.00 Ry     beta= 0.20
     Davidson diagonalization with overlap
     ethr =  5.31E-10,  avg # of iterations =  2.0

     total cpu time spent up to now is       92.7 secs

     total energy              =   -2749.56583917 Ry
     estimated scf accuracy    <       0.00000053 Ry

     iteration # 17     ecut=    60.00 Ry     beta= 0.20
     Davidson diagonalization with overlap
     ethr =  1.81E-10,  avg # of iterations =  2.0

     total cpu time spent up to now is       97.8 secs

     total energy              =   -2749.56583918 Ry
     estimated scf accuracy    <       0.00000026 Ry

     iteration # 18     ecut=    60.00 Ry     beta= 0.20
     Davidson diagonalization with overlap
     ethr =  9.06E-11,  avg # of iterations =  2.2

     total cpu time spent up to now is      103.0 secs

     total energy              =   -2749.56583916 Ry
     estimated scf accuracy    <       0.00000017 Ry

     iteration # 19     ecut=    60.00 Ry     beta= 0.20
     Davidson diagonalization with overlap
     ethr =  5.67E-11,  avg # of iterations =  2.0

     total cpu time spent up to now is      108.5 secs

     total energy              =   -2749.56583919 Ry
     estimated scf accuracy    <       0.00000004 Ry

     iteration # 20     ecut=    60.00 Ry     beta= 0.20
     Davidson diagonalization with overlap
     ethr =  1.21E-11,  avg # of iterations =  2.0

     total cpu time spent up to now is      113.9 secs

     total energy              =   -2749.56583920 Ry
     estimated scf accuracy    <       0.00000002 Ry

     iteration # 21     ecut=    60.00 Ry     beta= 0.20
     Davidson diagonalization with overlap
     ethr =  6.29E-12,  avg # of iterations =  2.0

     total cpu time spent up to now is      118.9 secs

     End of self-consistent calculation

          k = 0.0000 0.0000 0.0000 ( 28425 PWs)   bands (ev):

   -44.1866 -44.0401 -43.7271 -43.5627 -20.7733 -20.6905 -20.4837 -20.4286
   -20.3875 -20.3311 -20.2834 -20.1596 -19.9703 -19.9399 -19.8950 -19.6821
    -5.5729  -4.1443  -4.1259  -4.0588  -3.9762  -3.8438  -3.8046  -2.9407
    -2.9184  -2.8869  -2.8251  -2.7778  -2.7488  -2.7240  -2.7137  -2.6834
    -2.5028  -2.4374  -2.4160  -2.3642  -2.3132  -2.2175  -2.1033  -1.6816
    -1.6369  -1.6132  -1.5067  -1.4296  -1.4111  -1.3907  -1.3438  -1.3267
     3.3535   3.6577   3.7108   4.0396   4.6721   4.6972   4.7359   5.6230
     5.6348   5.6483   5.6718   5.6950   5.7025   5.7083   5.7263   5.9527
     5.9755   5.9872   6.0188   6.0649   6.0725   6.1560   6.2067   6.2739
     6.2995   6.3423   6.3635   6.4468   6.6113   6.6980   6.7612   7.4134
     7.4273   7.4648   7.4685   7.5366   7.5479   7.5763   7.6249   7.6823
     7.7184   7.7257   7.7496   7.7952   7.8283   7.8619   7.8840   7.9055
     8.0329   8.1383   8.1928   8.2236   8.4829   8.7301   8.9574   9.0247
     9.0590   9.1181   9.1564   9.2634   9.3056   9.5247   9.7465   9.7649
     9.8589   9.9350   9.9755  10.0278  10.0415  10.0456  10.0562  10.0770
    10.1415  10.1565  10.1984  10.2574  10.2873  10.2966  10.3426  10.3801
    10.4497  10.5133  10.5526  10.5651  10.5744  10.6121  10.6209  10.6340
    10.6524  10.6726  10.6814  10.7150  10.7356  11.7192  11.7313  11.7747
    13.0787  13.4498  13.7718  14.1377  14.3891  14.4541  14.6531  14.9503
    15.3023  15.3406  16.0834  16.1881  16.2566  16.6328  16.7111  16.7977
    16.9296  17.0028  17.0407  17.0998  17.2160  17.5024  17.7850  17.8336
    17.8998  17.9363  17.9453  18.0715  18.2671  18.5018  18.8822

          k = 0.0000 0.0000-0.5000 ( 28566 PWs)   bands (ev):

   -44.1867 -44.0402 -43.7271 -43.5628 -20.7733 -20.6905 -20.4837 -20.4286
   -20.3875 -20.3311 -20.2835 -20.1596 -19.9703 -19.9400 -19.8949 -19.6822
    -5.2183  -5.0922  -3.8205  -3.7717  -3.7542  -3.7128  -3.6369  -3.5162
    -3.4509  -3.3161  -2.7206  -2.6658  -2.6521  -2.6084  -2.5674  -2.5055
    -2.4904  -2.3659  -2.3258  -2.2490  -1.9196  -1.9045  -1.8915  -1.7978
    -1.7352  -1.6786  -1.6420  -1.5638  -1.5457  -1.4982  -1.4528  -1.4380
     4.1765   4.2289   4.3129   4.3719   4.6061   4.6227   4.7293   4.7700
     5.0074   5.0508   5.1567   5.1639   5.3832   5.4126   5.4434   5.4856
     5.5604   5.6195   5.8156   6.0529   6.1071   6.1452   6.2593   6.3212
     6.5749   6.6096   6.6648   6.7595   6.7742   6.9029   6.9290   6.9756
     7.0207   7.1082   7.1600   7.2098   7.2942   7.3539   7.9470   7.9761
     7.9956   8.0749   8.1161   8.2138   8.2872   8.4195   8.8165   8.9624
     8.9904   9.0057   9.0385   9.0533   9.0720   9.1356   9.1434   9.1774
     9.2087   9.2264   9.2385   9.2415   9.2677   9.2828   9.3078   9.3192
     9.4055   9.4116   9.4732   9.4833   9.5236   9.5542   9.6343   9.6744
     9.7330   9.9063   9.9602  10.0154  10.1579  10.2023  10.2912  10.3836
    10.4018  10.4519  10.5054  10.5232  10.5476  10.5713  10.5894  10.5945
    10.6312  10.6471  10.6954  10.7655  11.1801  11.1992  11.2110  11.2173
    13.7225  13.9049  13.9360  14.0330  14.3177  14.4208  14.8578  14.9487
    15.0863  15.2630  15.9259  16.2001  16.6158  16.7237  16.8373  17.0212
    17.0505  17.2338  17.3353  17.3698  17.5122  17.7957  18.0611  18.0826
    18.5119  18.7120  18.8517  18.8777  18.9163  18.9445  18.9794

          k = 0.0000-0.5000-0.5000 ( 28596 PWs)   bands (ev):

   -44.1867 -44.0402 -43.7271 -43.5628 -20.7733 -20.6905 -20.4837 -20.4286
   -20.3875 -20.3310 -20.2835 -20.1596 -19.9703 -19.9400 -19.8949 -19.6822
    -4.8945  -4.7830  -4.6828  -4.6336  -3.5162  -3.3929  -3.3480  -3.2875
    -3.2726  -3.2512  -3.1529  -3.0212  -2.4843  -2.4624  -2.2958  -2.2456
    -2.2342  -2.2102  -2.1967  -2.1343  -2.0610  -2.0326  -2.0101  -1.9362
    -1.9005  -1.8360  -1.6710  -1.6453  -1.6081  -1.4597  -1.4423  -1.4018
     4.1808   4.3282   4.3411   4.5000   4.5300   4.6077   4.7480   4.8942
     5.1520   5.3827   5.4123   5.4470   5.4993   5.5061   5.5563   5.5854
     5.6731   5.6767   5.7324   5.7412   5.7968   5.8046   5.8538   5.8982
     5.9643   5.9894   6.0845   6.1452   6.4563   6.6896   6.8127   7.0795
     7.4853   7.6231   7.8160   7.8949   7.9509   8.0450   8.0994   8.1164
     8.1244   8.1689   8.2171   8.2744   8.4768   8.5184   8.5575   8.6353
     8.6587   8.7489   8.7744   8.7942   8.8497   8.8735   8.9248   8.9396
     8.9687   9.0032   9.0702   9.2664   9.4133   9.4527   9.4912   9.5460
     9.5658   9.6243   9.6709   9.7139   9.7894   9.8157   9.8923   9.8979
     9.9356   9.9749  10.0000  10.0250  10.0757  10.1278  10.1311  10.1712
    10.2009  10.2088  10.2747  10.3343  10.3664  10.3955  10.4327  10.5466
    10.5966  10.6891  10.7068  10.7420  11.2973  11.3060  11.3907  11.4448
    13.7600  13.9180  14.2248  14.2881  14.3470  14.4398  14.8254  14.8749
    14.9376  15.2869  15.9382  16.1107  16.7303  16.7624  16.9162  16.9450
    17.0456  17.2934  17.4876  17.6568  17.8038  17.9190  18.1191  18.2134
    18.3407  18.4466  18.6102  18.8042  18.8482  18.9290  18.9662

          k =-0.5000-0.5000-0.5000 ( 28576 PWs)   bands (ev):

   -44.1867 -44.0402 -43.7271 -43.5628 -20.7733 -20.6905 -20.4837 -20.4286
   -20.3875 -20.3310 -20.2835 -20.1596 -19.9703 -19.9400 -19.8949 -19.6822
    -4.6144  -4.5537  -4.4562  -4.3926  -4.3731  -4.2198  -4.0603  -3.9271
    -2.5336  -2.4383  -2.3929  -2.3335  -2.2870  -2.2467  -2.2124  -2.1965
    -2.1794  -2.1747  -2.1627  -2.0968  -2.0924  -2.0525  -2.0131  -1.9934
    -1.9791  -1.9321  -1.9108  -1.8916  -1.8773  -1.7939  -1.6812  -1.5000
     4.6814   4.7251   4.8149   4.8321   4.8516   4.8596   4.8843   4.9026
     4.9080   4.9262   4.9560   4.9816   5.0543   5.0860   5.1126   5.1407
     5.1570   5.1903   5.2478   5.4370   5.6112   5.8111   6.0032   6.0600
     7.2279   7.2642   7.2944   7.3248   7.3507   7.3587   7.3860   7.4368
     7.5031   7.5168   7.5375   7.5981   7.6551   7.7212   7.7720   7.7923
     7.8204   7.8383   7.9056   7.9447   7.9676   8.0240   8.0664   8.1244
     8.1886   8.2200   8.2576   8.3199   8.3929   8.4221   8.5208   8.7767
     9.0244   9.1562   9.2664   9.3221   9.3432   9.4214   9.5462   9.5646
     9.5852   9.6006   9.6543   9.6680   9.7145   9.7235   9.7696   9.8065
     9.8834   9.9408  10.0096  10.0421  10.0985  10.1997  10.2887  10.3336
    10.6417  10.6996  10.7629  10.8240  10.9518  10.9637  11.0436  11.0559
    11.0741  11.0881  11.1096  11.1220  11.1377  11.1528  11.1585  11.1654
    13.7455  13.8776  14.1171  14.2098  14.3438  14.3892  14.7330  14.7994
    14.8632  15.2052  15.7856  16.1097  16.9146  17.0409  17.0555  17.1940
    17.2812  17.4276  17.6486  17.8645  17.8795  17.9815  18.0460  18.0697
    18.1338  18.1533  18.1652  18.2423  18.2661  18.4090  18.5050

          k =-0.5000 0.0000 0.0000 ( 28566 PWs)   bands (ev):

   -44.1867 -44.0402 -43.7271 -43.5628 -20.7733 -20.6905 -20.4837 -20.4286
   -20.3875 -20.3311 -20.2835 -20.1596 -19.9703 -19.9399 -19.8950 -19.6821
    -5.2887  -4.9763  -3.8626  -3.7915  -3.7781  -3.7236  -3.6724  -3.6017
    -3.3750  -3.1429  -2.8349  -2.7351  -2.6598  -2.6458  -2.6047  -2.5722
    -2.3694  -2.3065  -2.2734  -2.1718  -1.8942  -1.8555  -1.8511  -1.8212
    -1.7641  -1.7260  -1.7036  -1.6012  -1.5724  -1.5019  -1.4161  -1.4070
     4.1525   4.2763   4.3747   4.4161   4.4943   4.5504   4.5758   4.8141
     4.8383   5.1598   5.3486   5.3888   5.4041   5.4225   5.4464   5.4771
     5.5813   5.6382   5.8329   5.8633   5.9767   6.1528   6.3179   6.3285
     6.5164   6.5233   6.6669   6.7259   6.7924   6.8555   6.9526   6.9707
     7.0071   7.0919   7.1506   7.1704   7.2960   7.5068   7.8869   7.9017
     8.1080   8.1730   8.2634   8.3148   8.4046   8.5123   8.6073   8.8425
     8.9287   8.9940   9.0136   9.0747   9.1000   9.1211   9.1377   9.1544
     9.1637   9.1699   9.1911   9.2118   9.2397   9.2728   9.3070   9.3251
     9.3645   9.3918   9.4463   9.4897   9.5844   9.6106   9.6681   9.6897
     9.7337   9.8832   9.9039   9.9824  10.1899  10.2415  10.3210  10.3933
    10.4198  10.4519  10.4907  10.5512  10.5599  10.5941  10.6166  10.6285
    10.6414  10.6571  10.7066  10.7229  11.1668  11.1740  11.1947  11.2998
    13.0837  13.8505  14.1469  14.3316  14.4436  14.5356  14.7977  15.0122
    15.3008  15.3478  15.9219  16.2726  16.6089  16.6834  16.7992  16.9815
    17.0059  17.1293  17.3043  17.4621  17.5962  17.7653  17.8776  18.0159
    18.1783  18.4038  18.6627  18.7478  18.9102  18.9698  18.9983

          k = 0.0000-0.5000 0.0000 ( 28566 PWs)   bands (ev):

   -44.1867 -44.0402 -43.7271 -43.5628 -20.7733 -20.6905 -20.4837 -20.4286
   -20.3875 -20.3311 -20.2834 -20.1596 -19.9704 -19.9399 -19.8950 -19.6822
    -5.2074  -5.1021  -3.8406  -3.7682  -3.7389  -3.6849  -3.6536  -3.5072
    -3.4703  -3.3076  -2.7900  -2.6678  -2.6409  -2.6003  -2.5595  -2.4919
    -2.4574  -2.3720  -2.3155  -2.2884  -1.9073  -1.8736  -1.8587  -1.8132
    -1.7557  -1.7285  -1.6586  -1.5643  -1.5235  -1.5044  -1.4656  -1.3840
     4.1409   4.2734   4.3078   4.4243   4.5623   4.6016   4.6962   4.7652
     4.9640   4.9774   5.1946   5.2521   5.3636   5.3979   5.4411   5.4878
     5.6940   5.7654   5.7770   5.8807   6.0338   6.1049   6.3187   6.4359
     6.5810   6.6204   6.6980   6.7425   6.7609   6.8133   6.9029   6.9670
     6.9937   7.0636   7.2011   7.2773   7.3068   7.3273   7.8709   7.9114
     8.0499   8.1379   8.2011   8.2368   8.3732   8.4128   8.6543   8.9014
     8.9528   8.9747   9.0191   9.0276   9.0624   9.0811   9.1478   9.1707
     9.2030   9.2207   9.2353   9.2518   9.2800   9.3088   9.3391   9.3637
     9.4082   9.4277   9.4859   9.5048   9.5288   9.5534   9.6429   9.7047
     9.7671   9.9236  10.0081  10.1006  10.1564  10.2417  10.3192  10.3544
    10.4087  10.4175  10.4676  10.5102  10.5316  10.5631  10.5758  10.6044
    10.6151  10.6423  10.7202  10.7392  11.1238  11.1323  11.2354  11.2857
    13.4767  13.6912  14.0770  14.2168  14.4179  14.4891  14.8470  14.9666
    15.0530  15.2805  16.1015  16.2178  16.5973  16.8175  16.8646  16.9334
    17.0389  17.1690  17.3063  17.4683  17.5778  17.8011  17.8250  18.1384
    18.4933  18.5829  18.7509  18.7656  18.8216  18.9286  18.9911

          k =-0.5000 0.0000 0.5000 ( 28596 PWs)   bands (ev):

   -44.1867 -44.0402 -43.7271 -43.5628 -20.7733 -20.6905 -20.4837 -20.4286
   -20.3875 -20.3311 -20.2835 -20.1596 -19.9703 -19.9400 -19.8949 -19.6822
    -4.9667  -4.8000  -4.6127  -4.5377  -3.5492  -3.4831  -3.4329  -3.2973
    -3.2316  -3.1969  -3.1421  -3.1310  -2.4690  -2.3639  -2.3169  -2.2893
    -2.2772  -2.1855  -2.1145  -2.0979  -1.9918  -1.9868  -1.9543  -1.9113
    -1.8537  -1.8287  -1.7405  -1.7252  -1.6160  -1.5390  -1.4703  -1.3915
     4.2401   4.3174   4.3489   4.3527   4.5767   4.6200   4.7373   5.0105
     5.1022   5.3276   5.4274   5.4542   5.5101   5.5451   5.5653   5.6079
     5.6403   5.6644   5.7252   5.7386   5.7967   5.8133   5.8554   5.8840
     5.9313   6.0465   6.0911   6.2864   6.3645   6.5029   6.8573   6.9574
     7.6300   7.7103   7.7817   7.8442   8.0164   8.0565   8.0994   8.1128
     8.1253   8.1461   8.1649   8.1990   8.3724   8.4591   8.5817   8.6295
     8.7062   8.7386   8.8007   8.8222   8.8970   8.9184   8.9553   8.9777
     9.0237   9.1404   9.1597   9.2131   9.3374   9.4053   9.4880   9.5207
     9.5841   9.6143   9.6758   9.6880   9.7475   9.7794   9.8261   9.8627
     9.9671  10.0307  10.0602  10.0903  10.1092  10.1291  10.1465  10.1756
    10.2099  10.2556  10.2796  10.3178  10.4247  10.4677  10.5057  10.5189
    10.5417  10.5728  10.6219  10.6261  11.2274  11.2865  11.4283  11.4665
    13.7223  13.8828  14.1483  14.2786  14.2881  14.4842  14.8628  14.8762
    15.0973  15.2942  15.7713  16.2143  16.6246  16.8009  17.0012  17.0457
    17.1814  17.3129  17.5198  17.7106  17.8678  17.9732  18.1032  18.2351
    18.3937  18.5065  18.5614  18.6391  18.7231  18.7901  18.8911

          k =-0.5000 0.5000 0.0000 ( 28596 PWs)   bands (ev):

   -44.1867 -44.0402 -43.7271 -43.5628 -20.7733 -20.6905 -20.4837 -20.4286
   -20.3875 -20.3312 -20.2834 -20.1596 -19.9704 -19.9399 -19.8950 -19.6822
    -4.9225  -4.8510  -4.6566  -4.4788  -3.5020  -3.4590  -3.4401  -3.3540
    -3.2903  -3.2093  -3.1531  -3.1007  -2.3908  -2.3773  -2.3171  -2.3109
    -2.2687  -2.1962  -2.1868  -2.0531  -2.0180  -1.9349  -1.9232  -1.8870
    -1.8680  -1.8194  -1.8088  -1.7250  -1.6384  -1.4927  -1.4720  -1.3950
     4.2895   4.3130   4.3690   4.4624   4.5610   4.6339   4.6722   4.8761
     5.1623   5.3050   5.3894   5.4604   5.4777   5.5337   5.5644   5.6014
     5.6149   5.6218   5.6425   5.7063   5.7594   5.7961   5.8574   5.9546
     5.9835   6.0760   6.0902   6.2924   6.3573   6.6524   6.8554   6.9704
     7.5716   7.7398   7.8259   7.9176   8.0110   8.0245   8.0426   8.1223
     8.1445   8.1618   8.1793   8.3032   8.3380   8.4825   8.5804   8.6119
     8.7010   8.7125   8.7832   8.8377   8.8748   8.9066   8.9785   9.0140
     9.0677   9.1119   9.1256   9.1619   9.2483   9.4197   9.4368   9.4886
     9.5593   9.6308   9.6707   9.7338   9.7515   9.8125   9.8425   9.9077
     9.9684   9.9806  10.0045  10.0542  10.1181  10.1339  10.1472  10.1684
    10.2150  10.2393  10.3397  10.3851  10.4236  10.4505  10.5015  10.5154
    10.5483  10.5807  10.6227  10.6512  11.2152  11.2886  11.4183  11.4644
    13.6909  13.8502  14.1149  14.3112  14.3654  14.4752  14.7586  14.9831
    15.0680  15.1787  15.9308  16.2258  16.5832  16.7929  16.9695  17.1288
    17.1804  17.3882  17.5255  17.6049  17.8089  17.9607  18.0930  18.2276
    18.4459  18.5723  18.5899  18.6665  18.7472  18.8414  18.9516

     the Fermi energy is    13.9209 ev

!    total energy              =   -2749.56583919 Ry
     total all-electron energy =    -23938.816866 Ry
     estimated scf accuracy    <          3.3E-09 Ry
     smearing contrib. (-TS)   =      -0.00178446 Ry
     internal energy E=F+TS    =   -2749.56405472 Ry

     The total energy is F=E-TS. E is the sum of the following terms:
     one-electron contribution =    -180.87374226 Ry
     hartree contribution      =     306.17244271 Ry
     xc contribution           =    -340.58148017 Ry
     ewald contribution        =   -1047.22896799 Ry
     one-center paw contrib.   =   -1487.05230702 Ry

     convergence has been achieved in  21 iterations
 
     init_run     :      2.66s CPU      2.76s WALL (       1 calls)
     electrons    :    113.37s CPU    115.77s WALL (       1 calls)

     Called by init_run:
     wfcinit      :      2.19s CPU      2.26s WALL (       1 calls)
     potinit      :      0.22s CPU      0.23s WALL (       1 calls)
     hinit0       :      0.13s CPU      0.14s WALL (       1 calls)

     Called by electrons:
     c_bands      :     94.85s CPU     96.41s WALL (      21 calls)
     sum_band     :     12.01s CPU     12.42s WALL (      21 calls)
     v_of_rho     :      0.71s CPU      0.72s WALL (      22 calls)
     newd         :      1.28s CPU      1.55s WALL (      22 calls)
     PAW_pot      :      3.77s CPU      3.85s WALL (      22 calls)
     mix_rho      :      0.97s CPU      1.04s WALL (      21 calls)

     Called by c_bands:
     init_us_2    :      1.56s CPU      1.58s WALL (      86 calls)
     init_us_2:cp :      1.55s CPU      1.58s WALL (      86 calls)
     cegterg      :     83.85s CPU     85.32s WALL (      42 calls)

     Called by *egterg:
     cdiaghg      :      5.88s CPU      5.97s WALL (     235 calls)
     h_psi        :     45.29s CPU     45.95s WALL (     237 calls)
     s_psi        :     10.21s CPU     10.30s WALL (     237 calls)
     g_psi        :      0.16s CPU      0.16s WALL (     193 calls)

     Called by h_psi:
     h_psi:calbec :     12.17s CPU     12.26s WALL (     237 calls)
     vloc_psi     :     22.79s CPU     23.13s WALL (     237 calls)
     add_vuspsi   :     10.01s CPU     10.11s WALL (     237 calls)

     General routines
     calbec       :     16.80s CPU     16.93s WALL (     279 calls)
     fft          :      0.44s CPU      0.44s WALL (     242 calls)
     ffts         :      0.50s CPU      0.51s WALL (     441 calls)
     fftw         :     24.28s CPU     24.65s WALL (   44280 calls)
 
     Parallel routines
 
     PWSCF        :   1m56.28s CPU   1m59.04s WALL

 
   This run was terminated on:  17:14:43  12May2026            

=------------------------------------------------------------------------------=
   JOB DONE.
=------------------------------------------------------------------------------=
