
     Program PWSCF v.7.1 starts on 28Apr2026 at 14:50:51 

     This program is part of the open-source Quantum ESPRESSO suite
     for quantum simulation of materials; please cite
         "P. Giannozzi et al., J. Phys.:Condens. Matter 21 395502 (2009);
         "P. Giannozzi et al., J. Phys.:Condens. Matter 29 465901 (2017);
         "P. Giannozzi et al., J. Chem. Phys. 152 154105 (2020);
          URL http://www.quantum-espresso.org", 
     in publications or presentations arising from this work. More details at
     http://www.quantum-espresso.org/quote

     Parallel version (MPI & OpenMP), running on       4 processor cores
     Number of MPI processes:                 4
     Threads/MPI process:                     1

     MPI processes distributed on     1 nodes
     92227 MiB available memory on the printing compute node when the environment starts
 
     Reading input from AlN_relax.in

     Current dimensions of program PWSCF are:
     Max number of different atomic species (ntypx) = 10
     Max number of k-points (npk) = 150000
     Max angular momentum in pseudopotentials (lmaxx) =  4
     file Al.pbe-n-kjpaw_psl.1.0.0.UPF: wavefunction(s)  3S 3P renormalized
     file N.pbe-n-kjpaw_psl.1.0.0.UPF: wavefunction(s)  2S renormalized
     Message from routine setup:
     using ibrav=0 with symmetry is DISCOURAGED, use correct ibrav instead
 
     K-points division:     npool     =       2
     R & G space division:  proc/nbgrp/npool/nimage =       2
     Subspace diagonalization in iterative solution of the eigenvalue problem:
     a serial algorithm will be used

 
     Parallelization info
     --------------------
     sticks:   dense  smooth     PW     G-vecs:    dense   smooth      PW
     Min         819     819    237                21799    21799    3426
     Max         820     820    238                21800    21800    3429
     Sum        1639    1639    475                43599    43599    6855
 
     Using Slab Decomposition
 


     bravais-lattice index     =            0
     lattice parameter (alat)  =       5.4385  a.u.
     unit-cell volume          =     113.7417 (a.u.)^3
     number of atoms/cell      =            2
     number of atomic types    =            2
     number of electrons       =         8.00
     number of Kohn-Sham states=            8
     kinetic-energy cutoff     =     200.0000  Ry
     charge density cutoff     =     800.0000  Ry
     scf convergence threshold =      1.0E-08
     mixing beta               =       0.2000
     number of iterations used =            8  local-TF  mixing
     energy convergence thresh.=      1.0E-07
     force convergence thresh. =      1.0E-05
     press convergence thresh. =      5.0E-01
     Exchange-correlation= SLA  PW   PBX  PBC
                           (   1   4   3   4   0   0   0)
     nstep                     =           50


     celldm(1)=   5.438489  celldm(2)=   0.000000  celldm(3)=   0.000000
     celldm(4)=   0.000000  celldm(5)=   0.000000  celldm(6)=   0.000000

     crystal axes: (cart. coord. in units of alat)
               a(1) = (  -0.707107   0.000000   0.707107 )  
               a(2) = (   0.000000   0.707107   0.707107 )  
               a(3) = (  -0.707107   0.707107   0.000000 )  

     reciprocal axes: (cart. coord. in units 2 pi/alat)
               b(1) = ( -0.707107 -0.707107  0.707107 )  
               b(2) = (  0.707107  0.707107  0.707107 )  
               b(3) = ( -0.707107  0.707107 -0.707107 )  


     PseudoPot. # 1 for Al read from file:
     ../../pseudo/Al.pbe-n-kjpaw_psl.1.0.0.UPF
     MD5 check sum: 502b6b27b9c6270cab5dd1084b96fa6d
     Pseudo is Projector augmented-wave + core cor, Zval =  3.0
     Generated using &quot;atomic&quot; code by A. Dal Corso  v.6.3
     Shape of augmentation charge: PSQ
     Using radial grid of 1135 points,  6 beta functions with: 
                l(1) =   0
                l(2) =   0
                l(3) =   1
                l(4) =   1
                l(5) =   2
                l(6) =   2
     Q(r) pseudized with 0 coefficients 


     PseudoPot. # 2 for N  read from file:
     ../../pseudo/N.pbe-n-kjpaw_psl.1.0.0.UPF
     MD5 check sum: 14c48229446f9f2d411169a3abcbc3fa
     Pseudo is Projector augmented-wave + core cor, Zval =  5.0
     Generated using &quot;atomic&quot; code by A. Dal Corso  v.6.3
     Shape of augmentation charge: PSQ
     Using radial grid of 1085 points,  4 beta functions with: 
                l(1) =   0
                l(2) =   0
                l(3) =   1
                l(4) =   1
     Q(r) pseudized with 0 coefficients 


     atomic species   valence    mass     pseudopotential
        Al             3.00    26.98200     Al( 1.00)
        N              5.00    14.00700     N ( 1.00)

     48 Sym. Ops., with inversion, found



   Cartesian axes

     site n.     atom                  positions (alat units)
         1           Al  tau(   1) = (   0.0000000   0.0000000   0.0000000  )
         2           N   tau(   2) = (  -0.7071068   0.7071068   0.7071068  )

     number of k points=   145  Gaussian smearing, width (Ry)=  0.0050

     Number of k-points >= 100: set verbosity='high' to print them.

     Dense  grid:    43599 G-vectors     FFT dimensions: (  50,  50,  50)

     Estimated max dynamical RAM per process >      82.22 MB

     Estimated total dynamical RAM >     318.24 MB

     Initial potential from superposition of free atoms

     starting charge       7.9977, renormalised to       8.0000
     Starting wfcs are    8 randomized atomic wfcs
     Checking if some PAW data can be deallocated... 

     total cpu time spent up to now is        1.7 secs

     Self-consistent Calculation

     iteration #  1     ecut=   200.00 Ry     beta= 0.20
     Davidson diagonalization with overlap
     ethr =  1.00E-02,  avg # of iterations =  4.1

     total cpu time spent up to now is        4.3 secs

     total energy              =     -67.96457539 Ry
     estimated scf accuracy    <       0.41917997 Ry

     iteration #  2     ecut=   200.00 Ry     beta= 0.20
     Davidson diagonalization with overlap
     ethr =  5.24E-03,  avg # of iterations =  1.0

     total cpu time spent up to now is        6.1 secs

     total energy              =     -67.86451766 Ry
     estimated scf accuracy    <       0.23106147 Ry

     iteration #  3     ecut=   200.00 Ry     beta= 0.20
     Davidson diagonalization with overlap
     ethr =  2.89E-03,  avg # of iterations =  1.7

     total cpu time spent up to now is        8.0 secs

     total energy              =     -67.90319319 Ry
     estimated scf accuracy    <       0.00700502 Ry

     iteration #  4     ecut=   200.00 Ry     beta= 0.20
     Davidson diagonalization with overlap
     ethr =  8.76E-05,  avg # of iterations =  2.1

     total cpu time spent up to now is       10.1 secs

     total energy              =     -67.90319931 Ry
     estimated scf accuracy    <       0.00170513 Ry

     iteration #  5     ecut=   200.00 Ry     beta= 0.20
     Davidson diagonalization with overlap
     ethr =  2.13E-05,  avg # of iterations =  1.6

     total cpu time spent up to now is       12.0 secs

     total energy              =     -67.90341099 Ry
     estimated scf accuracy    <       0.00001045 Ry

     iteration #  6     ecut=   200.00 Ry     beta= 0.20
     Davidson diagonalization with overlap
     ethr =  1.31E-07,  avg # of iterations =  3.5

     total cpu time spent up to now is       14.5 secs

     total energy              =     -67.90336682 Ry
     estimated scf accuracy    <       0.00012284 Ry

     iteration #  7     ecut=   200.00 Ry     beta= 0.20
     Davidson diagonalization with overlap
     ethr =  1.31E-07,  avg # of iterations =  2.4

     total cpu time spent up to now is       16.6 secs

     total energy              =     -67.90339358 Ry
     estimated scf accuracy    <       0.00000329 Ry

     iteration #  8     ecut=   200.00 Ry     beta= 0.20
     Davidson diagonalization with overlap
     ethr =  4.11E-08,  avg # of iterations =  2.0

     total cpu time spent up to now is       18.6 secs

     total energy              =     -67.90339438 Ry
     estimated scf accuracy    <       0.00000027 Ry

     iteration #  9     ecut=   200.00 Ry     beta= 0.20
     Davidson diagonalization with overlap
     ethr =  3.34E-09,  avg # of iterations =  1.3

     total cpu time spent up to now is       20.4 secs

     total energy              =     -67.90339435 Ry
     estimated scf accuracy    <       0.00000008 Ry

     iteration # 10     ecut=   200.00 Ry     beta= 0.20
     Davidson diagonalization with overlap
     ethr =  1.03E-09,  avg # of iterations =  1.1

     total cpu time spent up to now is       22.2 secs

     End of self-consistent calculation

     Number of k-points >= 100: set verbosity='high' to print the bands.

     the Fermi energy is    12.9199 ev

!    total energy              =     -67.90339436 Ry
     total all-electron energy =      -595.344973 Ry
     estimated scf accuracy    <          6.4E-09 Ry
     smearing contrib. (-TS)   =      -0.00000000 Ry
     internal energy E=F+TS    =     -67.90339436 Ry

     The total energy is F=E-TS. E is the sum of the following terms:
     one-electron contribution =       3.32974456 Ry
     hartree contribution      =       4.56029850 Ry
     xc contribution           =      -8.64069195 Ry
     ewald contribution        =     -24.51862769 Ry
     one-center paw contrib.   =     -42.63411778 Ry

     convergence has been achieved in  10 iterations

     Forces acting on atoms (cartesian axes, Ry/au):

     atom    1 type  1   force =    -0.00000000    0.00000000   -0.00000000
     atom    2 type  2   force =    -0.00000000    0.00000000    0.00000000

     Total force =     0.000000     Total SCF correction =     0.000000


     Computing stress (Cartesian axis) and pressure

          total   stress  (Ry/bohr**3)                   (kbar)     P=        6.21
   0.00004223  -0.00000000  -0.00000000            6.21       -0.00       -0.00
  -0.00000000   0.00004223  -0.00000000           -0.00        6.21       -0.00
  -0.00000000   0.00000000   0.00004223           -0.00        0.00        6.21


     BFGS Geometry Optimization
     Energy error            =      0.0E+00 Ry
     Gradient error          =      9.3E-32 Ry/Bohr
     Cell gradient error     =      6.2E+00 kbar

     number of scf cycles    =   1
     number of bfgs steps    =   0

     enthalpy           new  =     -67.9033943567 Ry

     new trust radius        =       0.0022517152 bohr
     new conv_thr            =       0.0000000100 Ry

     new unit-cell volume =    114.10231 a.u.^3 (    16.90822 Ang^3 )
     density =      4.02549 g/cm^3

CELL_PARAMETERS (bohr)
  -3.849652044  -0.000000000   3.849652044
  -0.000000000   3.849652044   3.849652044
  -3.849652044   3.849652044  -0.000000000

ATOMIC_POSITIONS (crystal)
Al           -0.0000000000        0.0000000000        0.0000000000
N             0.5000000000        0.5000000000        0.5000000000



     Writing config-only to output data dir ../output/AlN.save/
     NEW-OLD atomic charge density approx. for the potential
     extrapolated charge    8.02528, renormalised to    8.00000

     total cpu time spent up to now is       25.1 secs

     Self-consistent Calculation

     iteration #  1     ecut=   200.00 Ry     beta= 0.20
     Davidson diagonalization with overlap
     ethr =  1.00E-06,  avg # of iterations =  2.0

     total cpu time spent up to now is       27.5 secs

     total energy              =     -67.90330875 Ry
     estimated scf accuracy    <       0.00011497 Ry

     iteration #  2     ecut=   200.00 Ry     beta= 0.20
     Davidson diagonalization with overlap
     ethr =  1.44E-06,  avg # of iterations =  2.0

     total cpu time spent up to now is       29.6 secs

     total energy              =     -67.90340271 Ry
     estimated scf accuracy    <       0.00001531 Ry

     iteration #  3     ecut=   200.00 Ry     beta= 0.20
     Davidson diagonalization with overlap
     ethr =  1.91E-07,  avg # of iterations =  1.0

     total cpu time spent up to now is       31.3 secs

     total energy              =     -67.90339435 Ry
     estimated scf accuracy    <       0.00001123 Ry

     iteration #  4     ecut=   200.00 Ry     beta= 0.20
     Davidson diagonalization with overlap
     ethr =  1.40E-07,  avg # of iterations =  2.0

     total cpu time spent up to now is       33.4 secs

     total energy              =     -67.90340453 Ry
     estimated scf accuracy    <       0.00000907 Ry

     iteration #  5     ecut=   200.00 Ry     beta= 0.20
     Davidson diagonalization with overlap
     ethr =  1.13E-07,  avg # of iterations =  1.0

     total cpu time spent up to now is       35.2 secs

     total energy              =     -67.90339649 Ry
     estimated scf accuracy    <       0.00001619 Ry

     iteration #  6     ecut=   200.00 Ry     beta= 0.20
     Davidson diagonalization with overlap
     ethr =  1.13E-07,  avg # of iterations =  2.0

     total cpu time spent up to now is       37.3 secs

     total energy              =     -67.90339921 Ry
     estimated scf accuracy    <       0.00000010 Ry

     iteration #  7     ecut=   200.00 Ry     beta= 0.20
     Davidson diagonalization with overlap
     ethr =  1.20E-09,  avg # of iterations =  2.7

     total cpu time spent up to now is       39.4 secs

     End of self-consistent calculation

     Number of k-points >= 100: set verbosity='high' to print the bands.

     the Fermi energy is    12.8607 ev

!    total energy              =     -67.90339923 Ry
     total all-electron energy =      -595.344978 Ry
     estimated scf accuracy    <          5.2E-09 Ry
     smearing contrib. (-TS)   =      -0.00000000 Ry
     internal energy E=F+TS    =     -67.90339923 Ry

     The total energy is F=E-TS. E is the sum of the following terms:
     one-electron contribution =       3.29353239 Ry
     hartree contribution      =       4.56541863 Ry
     xc contribution           =      -8.63595401 Ry
     ewald contribution        =     -24.49277167 Ry
     one-center paw contrib.   =     -42.63362456 Ry

     convergence has been achieved in   7 iterations

     Forces acting on atoms (cartesian axes, Ry/au):

     atom    1 type  1   force =    -0.00000000   -0.00000000   -0.00000000
     atom    2 type  2   force =     0.00000000   -0.00000000    0.00000000

     Total force =     0.000000     Total SCF correction =     0.000000


     Computing stress (Cartesian axis) and pressure

          total   stress  (Ry/bohr**3)                   (kbar)     P=       -2.19
  -0.00001491  -0.00000000  -0.00000000           -2.19       -0.00       -0.00
  -0.00000000  -0.00001491  -0.00000000           -0.00       -2.19       -0.00
   0.00000000   0.00000000  -0.00001491            0.00        0.00       -2.19

     Energy error            =      4.9E-06 Ry
     Gradient error          =      2.6E-32 Ry/Bohr
     Cell gradient error     =      2.2E+00 kbar

     number of scf cycles    =   2
     number of bfgs steps    =   1

     enthalpy           old  =     -67.9033943567 Ry
     enthalpy           new  =     -67.9033992302 Ry

     CASE: enthalpy          _new < enthalpy          _old

     new trust radius        =       0.0005889601 bohr
     new conv_thr            =            1.0E-10 Ry

     new unit-cell volume =    114.00797 a.u.^3 (    16.89424 Ang^3 )
     density =      4.02882 g/cm^3

CELL_PARAMETERS (bohr)
  -3.848590763   0.000000000   3.848590763
  -0.000000000   3.848590763   3.848590763
  -3.848590763   3.848590763  -0.000000000

ATOMIC_POSITIONS (crystal)
Al           -0.0000000000       -0.0000000000        0.0000000000
N             0.5000000000        0.5000000000        0.5000000000



     Writing config-only to output data dir ../output/AlN.save/
     NEW-OLD atomic charge density approx. for the potential
     extrapolated charge    7.99338, renormalised to    8.00000

     total cpu time spent up to now is       42.3 secs

     Self-consistent Calculation

     iteration #  1     ecut=   200.00 Ry     beta= 0.20
     Davidson diagonalization with overlap
     ethr =  1.00E-06,  avg # of iterations =  2.0

     total cpu time spent up to now is       44.7 secs

     total energy              =     -67.90339357 Ry
     estimated scf accuracy    <       0.00000840 Ry

     iteration #  2     ecut=   200.00 Ry     beta= 0.20
     Davidson diagonalization with overlap
     ethr =  1.05E-07,  avg # of iterations =  2.0

     total cpu time spent up to now is       46.8 secs

     total energy              =     -67.90340007 Ry
     estimated scf accuracy    <       0.00000091 Ry

     iteration #  3     ecut=   200.00 Ry     beta= 0.20
     Davidson diagonalization with overlap
     ethr =  1.14E-08,  avg # of iterations =  1.0

     total cpu time spent up to now is       48.6 secs

     total energy              =     -67.90339957 Ry
     estimated scf accuracy    <       0.00000067 Ry

     iteration #  4     ecut=   200.00 Ry     beta= 0.20
     Davidson diagonalization with overlap
     ethr =  8.35E-09,  avg # of iterations =  2.0

     total cpu time spent up to now is       50.8 secs

     total energy              =     -67.90340013 Ry
     estimated scf accuracy    <       0.00000046 Ry

     iteration #  5     ecut=   200.00 Ry     beta= 0.20
     Davidson diagonalization with overlap
     ethr =  5.72E-09,  avg # of iterations =  1.0

     total cpu time spent up to now is       52.6 secs

     total energy              =     -67.90339971 Ry
     estimated scf accuracy    <       0.00000085 Ry

     iteration #  6     ecut=   200.00 Ry     beta= 0.20
     Davidson diagonalization with overlap
     ethr =  5.72E-09,  avg # of iterations =  2.0

     total cpu time spent up to now is       54.7 secs

     total energy              =     -67.90339986 Ry
     estimated scf accuracy    <          3.5E-09 Ry

     iteration #  7     ecut=   200.00 Ry     beta= 0.20
     Davidson diagonalization with overlap
     ethr =  4.43E-11,  avg # of iterations =  3.0

     total cpu time spent up to now is       56.9 secs

     total energy              =     -67.90339986 Ry
     estimated scf accuracy    <          2.0E-10 Ry

     iteration #  8     ecut=   200.00 Ry     beta= 0.20
     Davidson diagonalization with overlap
     ethr =  2.45E-12,  avg # of iterations =  1.8

     total cpu time spent up to now is       58.9 secs

     total energy              =     -67.90339986 Ry
     estimated scf accuracy    <          2.9E-10 Ry

     iteration #  9     ecut=   200.00 Ry     beta= 0.20
     Davidson diagonalization with overlap
     ethr =  2.45E-12,  avg # of iterations =  1.0

     total cpu time spent up to now is       60.8 secs

     total energy              =     -67.90339986 Ry
     estimated scf accuracy    <          1.3E-10 Ry

     iteration # 10     ecut=   200.00 Ry     beta= 0.20
     Davidson diagonalization with overlap
     ethr =  1.60E-12,  avg # of iterations =  2.0

     total cpu time spent up to now is       62.8 secs

     End of self-consistent calculation

     Number of k-points >= 100: set verbosity='high' to print the bands.

     the Fermi energy is    12.8761 ev

!    total energy              =     -67.90339986 Ry
     total all-electron energy =      -595.344978 Ry
     estimated scf accuracy    <          7.7E-14 Ry
     smearing contrib. (-TS)   =      -0.00000000 Ry
     internal energy E=F+TS    =     -67.90339986 Ry

     The total energy is F=E-TS. E is the sum of the following terms:
     one-electron contribution =       3.30292607 Ry
     hartree contribution      =       4.56416835 Ry
     xc contribution           =      -8.63721457 Ry
     ewald contribution        =     -24.49952576 Ry
     one-center paw contrib.   =     -42.63375395 Ry

     convergence has been achieved in  10 iterations

     Forces acting on atoms (cartesian axes, Ry/au):

     atom    1 type  1   force =     0.00000000    0.00000000   -0.00000000
     atom    2 type  2   force =     0.00000000    0.00000000   -0.00000000

     Total force =     0.000000     Total SCF correction =     0.000000


     Computing stress (Cartesian axis) and pressure

          total   stress  (Ry/bohr**3)                   (kbar)     P=        0.08
   0.00000052  -0.00000000  -0.00000000            0.08       -0.00       -0.00
  -0.00000000   0.00000052   0.00000000           -0.00        0.08        0.00
  -0.00000000   0.00000000   0.00000052           -0.00        0.00        0.08

     Energy error            =      6.3E-07 Ry
     Gradient error          =      1.4E-31 Ry/Bohr
     Cell gradient error     =      7.7E-02 kbar

     number of scf cycles    =   3
     number of bfgs steps    =   2

     enthalpy           old  =     -67.9033992302 Ry
     enthalpy           new  =     -67.9033998573 Ry

     CASE: enthalpy          _new < enthalpy          _old

     small trust_radius: resetting bfgs history

     new trust radius        =       0.0000279732 bohr
     new conv_thr            =            1.0E-10 Ry

     new unit-cell volume =    114.01245 a.u.^3 (    16.89490 Ang^3 )
     density =      4.02866 g/cm^3

CELL_PARAMETERS (bohr)
  -3.848641177   0.000000000   3.848641177
  -0.000000000   3.848641177   3.848641177
  -3.848641177   3.848641177  -0.000000000

ATOMIC_POSITIONS (crystal)
Al           -0.0000000000        0.0000000000        0.0000000000
N             0.5000000000        0.5000000000        0.5000000000



     Writing config-only to output data dir ../output/AlN.save/
     NEW-OLD atomic charge density approx. for the potential
     extrapolated charge    8.00031, renormalised to    8.00000

     total cpu time spent up to now is       65.7 secs

     Self-consistent Calculation

     iteration #  1     ecut=   200.00 Ry     beta= 0.20
     Davidson diagonalization with overlap
     ethr =  1.00E-06,  avg # of iterations =  2.0

     Threshold (ethr) on eigenvalues was too large:
     Diagonalizing with lowered threshold

     Davidson diagonalization with overlap
     ethr =  2.00E-10,  avg # of iterations =  1.0

     total cpu time spent up to now is       69.5 secs

     total energy              =     -67.90339984 Ry
     estimated scf accuracy    <       0.00000002 Ry

     iteration #  2     ecut=   200.00 Ry     beta= 0.20
     Davidson diagonalization with overlap
     ethr =  2.17E-10,  avg # of iterations =  2.0

     total cpu time spent up to now is       71.7 secs

     total energy              =     -67.90339986 Ry
     estimated scf accuracy    <          2.5E-09 Ry

     iteration #  3     ecut=   200.00 Ry     beta= 0.20
     Davidson diagonalization with overlap
     ethr =  3.17E-11,  avg # of iterations =  1.0

     total cpu time spent up to now is       73.5 secs

     total energy              =     -67.90339986 Ry
     estimated scf accuracy    <          1.9E-09 Ry

     iteration #  4     ecut=   200.00 Ry     beta= 0.20
     Davidson diagonalization with overlap
     ethr =  2.32E-11,  avg # of iterations =  2.0

     total cpu time spent up to now is       75.6 secs

     total energy              =     -67.90339986 Ry
     estimated scf accuracy    <          9.7E-10 Ry

     iteration #  5     ecut=   200.00 Ry     beta= 0.20
     Davidson diagonalization with overlap
     ethr =  1.21E-11,  avg # of iterations =  1.3

     total cpu time spent up to now is       77.5 secs

     total energy              =     -67.90339986 Ry
     estimated scf accuracy    <          2.8E-09 Ry

     iteration #  6     ecut=   200.00 Ry     beta= 0.20
     Davidson diagonalization with overlap
     ethr =  1.21E-11,  avg # of iterations =  2.0

     total cpu time spent up to now is       79.6 secs

     End of self-consistent calculation

     Number of k-points >= 100: set verbosity='high' to print the bands.

     the Fermi energy is    12.8754 ev

!    total energy              =     -67.90339986 Ry
     total all-electron energy =      -595.344978 Ry
     estimated scf accuracy    <          3.6E-11 Ry
     smearing contrib. (-TS)   =      -0.00000000 Ry
     internal energy E=F+TS    =     -67.90339986 Ry

     The total energy is F=E-TS. E is the sum of the following terms:
     one-electron contribution =       3.30248487 Ry
     hartree contribution      =       4.56422108 Ry
     xc contribution           =      -8.63715297 Ry
     ewald contribution        =     -24.49920484 Ry
     one-center paw contrib.   =     -42.63374800 Ry

     convergence has been achieved in   6 iterations

     Forces acting on atoms (cartesian axes, Ry/au):

     atom    1 type  1   force =    -0.00000000   -0.00000000    0.00000000
     atom    2 type  2   force =     0.00000000   -0.00000000   -0.00000000

     Total force =     0.000000     Total SCF correction =     0.000000


     Computing stress (Cartesian axis) and pressure

          total   stress  (Ry/bohr**3)                   (kbar)     P=       -0.04
  -0.00000025  -0.00000000  -0.00000000           -0.04       -0.00       -0.00
   0.00000000  -0.00000025  -0.00000000            0.00       -0.04       -0.00
   0.00000000  -0.00000000  -0.00000025            0.00       -0.00       -0.04

     Energy error            =      6.9E-10 Ry
     Gradient error          =      9.3E-32 Ry/Bohr
     Cell gradient error     =      3.6E-02 kbar

     bfgs converged in   4 scf cycles and   3 bfgs steps
     (criteria: energy <  1.0E-07 Ry, force <  1.0E-05 Ry/Bohr, cell <  5.0E-01 kbar)

     End of BFGS Geometry Optimization

     Final enthalpy           =     -67.9033998580 Ry

     File ../output/AlN.bfgs deleted, as requested
Begin final coordinates
     new unit-cell volume =    114.01245 a.u.^3 (    16.89490 Ang^3 )
     density =      4.02866 g/cm^3

CELL_PARAMETERS (bohr)
  -3.848641177   0.000000000   3.848641177
  -0.000000000   3.848641177   3.848641177
  -3.848641177   3.848641177  -0.000000000

ATOMIC_POSITIONS (crystal)
Al           -0.0000000000        0.0000000000        0.0000000000
N             0.5000000000        0.5000000000        0.5000000000
End final coordinates



     Writing config-only to output data dir ../output/AlN.save/

     Final scf calculation at the relaxed structure.
     The G-vectors are recalculated for the final unit cell
     Results may differ from those at the preceding step.
 
     Parallelization info
     --------------------
     sticks:   dense  smooth     PW     G-vecs:    dense   smooth      PW
     Min         819     819    237                21827    21827    3426
     Max         820     820    238                21828    21828    3429
     Sum        1639    1639    475                43655    43655    6855
 
     Using Slab Decomposition
 


     bravais-lattice index     =            0
     lattice parameter (alat)  =       5.4385  a.u.
     unit-cell volume          =     114.0124 (a.u.)^3
     number of atoms/cell      =            2
     number of atomic types    =            2
     number of electrons       =         8.00
     number of Kohn-Sham states=            8
     kinetic-energy cutoff     =     200.0000  Ry
     charge density cutoff     =     800.0000  Ry
     scf convergence threshold =      1.0E-10
     mixing beta               =       0.2000
     number of iterations used =            8  local-TF  mixing
     press convergence thresh. =      5.0E-01
     Exchange-correlation= SLA  PW   PBX  PBC
                           (   1   4   3   4   0   0   0)

     celldm(1)=   5.438489  celldm(2)=   0.000000  celldm(3)=   0.000000
     celldm(4)=   0.000000  celldm(5)=   0.000000  celldm(6)=   0.000000

     crystal axes: (cart. coord. in units of alat)
               a(1) = (  -0.707667   0.000000   0.707667 )  
               a(2) = (  -0.000000   0.707667   0.707667 )  
               a(3) = (  -0.707667   0.707667  -0.000000 )  

     reciprocal axes: (cart. coord. in units 2 pi/alat)
               b(1) = ( -0.706547 -0.706547  0.706547 )  
               b(2) = (  0.706547  0.706547  0.706547 )  
               b(3) = ( -0.706547  0.706547 -0.706547 )  


     PseudoPot. # 1 for Al read from file:
     ../../pseudo/Al.pbe-n-kjpaw_psl.1.0.0.UPF
     MD5 check sum: 502b6b27b9c6270cab5dd1084b96fa6d
     Pseudo is Projector augmented-wave + core cor, Zval =  3.0
     Generated using &quot;atomic&quot; code by A. Dal Corso  v.6.3
     Shape of augmentation charge: PSQ
     Using radial grid of 1135 points,  6 beta functions with: 
                l(1) =   0
                l(2) =   0
                l(3) =   1
                l(4) =   1
                l(5) =   2
                l(6) =   2
     Q(r) pseudized with 0 coefficients 


     PseudoPot. # 2 for N  read from file:
     ../../pseudo/N.pbe-n-kjpaw_psl.1.0.0.UPF
     MD5 check sum: 14c48229446f9f2d411169a3abcbc3fa
     Pseudo is Projector augmented-wave + core cor, Zval =  5.0
     Generated using &quot;atomic&quot; code by A. Dal Corso  v.6.3
     Shape of augmentation charge: PSQ
     Using radial grid of 1085 points,  4 beta functions with: 
                l(1) =   0
                l(2) =   0
                l(3) =   1
                l(4) =   1
     Q(r) pseudized with 0 coefficients 


     atomic species   valence    mass     pseudopotential
        Al             3.00    26.98200     Al( 1.00)
        N              5.00    14.00700     N ( 1.00)

     48 Sym. Ops., with inversion, found



   Cartesian axes

     site n.     atom                  positions (alat units)
         1           Al  tau(   1) = (   0.0000000   0.0000000  -0.0000000  )
         2           N   tau(   2) = (  -0.7076674   0.7076674   0.7076674  )

     number of k points=   145  Gaussian smearing, width (Ry)=  0.0050

     Number of k-points >= 100: set verbosity='high' to print them.

     Dense  grid:    43655 G-vectors     FFT dimensions: (  50,  50,  50)

     Estimated max dynamical RAM per process >      82.67 MB

     Estimated total dynamical RAM >     320.03 MB

     Initial potential from superposition of free atoms

     starting charge       7.9977, renormalised to       8.0000
     Starting wfcs are    8 randomized atomic wfcs
     Checking if some PAW data can be deallocated... 

     total cpu time spent up to now is       83.3 secs

     Self-consistent Calculation

     iteration #  1     ecut=   200.00 Ry     beta= 0.20
     Davidson diagonalization with overlap
     ethr =  1.00E-06,  avg # of iterations = 12.3

     total cpu time spent up to now is       90.0 secs

     total energy              =     -67.96653249 Ry
     estimated scf accuracy    <       0.41376789 Ry

     iteration #  2     ecut=   200.00 Ry     beta= 0.20
     Davidson diagonalization with overlap
     ethr =  5.17E-03,  avg # of iterations =  1.0

     total cpu time spent up to now is       91.8 secs

     total energy              =     -67.86228108 Ry
     estimated scf accuracy    <       0.23187403 Ry

     iteration #  3     ecut=   200.00 Ry     beta= 0.20
     Davidson diagonalization with overlap
     ethr =  2.90E-03,  avg # of iterations =  1.7

     total cpu time spent up to now is       93.8 secs

     total energy              =     -67.90317679 Ry
     estimated scf accuracy    <       0.00661589 Ry

     iteration #  4     ecut=   200.00 Ry     beta= 0.20
     Davidson diagonalization with overlap
     ethr =  8.27E-05,  avg # of iterations =  1.7

     total cpu time spent up to now is       95.8 secs

     total energy              =     -67.90337914 Ry
     estimated scf accuracy    <       0.00076212 Ry

     iteration #  5     ecut=   200.00 Ry     beta= 0.20
     Davidson diagonalization with overlap
     ethr =  9.53E-06,  avg # of iterations =  2.1

     total cpu time spent up to now is       97.8 secs

     total energy              =     -67.90340154 Ry
     estimated scf accuracy    <       0.00000797 Ry

     iteration #  6     ecut=   200.00 Ry     beta= 0.20
     Davidson diagonalization with overlap
     ethr =  9.96E-08,  avg # of iterations =  2.9

     total cpu time spent up to now is      100.1 secs

     total energy              =     -67.90339988 Ry
     estimated scf accuracy    <       0.00001147 Ry

     iteration #  7     ecut=   200.00 Ry     beta= 0.20
     Davidson diagonalization with overlap
     ethr =  9.96E-08,  avg # of iterations =  1.0

     total cpu time spent up to now is      101.9 secs

     total energy              =     -67.90339989 Ry
     estimated scf accuracy    <       0.00000020 Ry

     iteration #  8     ecut=   200.00 Ry     beta= 0.20
     Davidson diagonalization with overlap
     ethr =  2.52E-09,  avg # of iterations =  1.7

     total cpu time spent up to now is      103.8 secs

     total energy              =     -67.90339987 Ry
     estimated scf accuracy    <       0.00000010 Ry

     iteration #  9     ecut=   200.00 Ry     beta= 0.20
     Davidson diagonalization with overlap
     ethr =  1.21E-09,  avg # of iterations =  1.7

     total cpu time spent up to now is      105.7 secs

     total energy              =     -67.90339987 Ry
     estimated scf accuracy    <          2.4E-09 Ry

     iteration # 10     ecut=   200.00 Ry     beta= 0.20
     Davidson diagonalization with overlap
     ethr =  2.98E-11,  avg # of iterations =  2.2

     total cpu time spent up to now is      107.8 secs

     total energy              =     -67.90339987 Ry
     estimated scf accuracy    <          3.0E-09 Ry

     iteration # 11     ecut=   200.00 Ry     beta= 0.20
     Davidson diagonalization with overlap
     ethr =  2.98E-11,  avg # of iterations =  2.0

     total cpu time spent up to now is      109.8 secs

     End of self-consistent calculation

     Number of k-points >= 100: set verbosity='high' to print the bands.

     the Fermi energy is    12.8753 ev

!    total energy              =     -67.90339986 Ry
     total all-electron energy =      -595.344978 Ry
     estimated scf accuracy    <          5.1E-11 Ry
     smearing contrib. (-TS)   =      -0.00000000 Ry
     internal energy E=F+TS    =     -67.90339986 Ry

     The total energy is F=E-TS. E is the sum of the following terms:
     one-electron contribution =       3.30246667 Ry
     hartree contribution      =       4.56424605 Ry
     xc contribution           =      -8.63715972 Ry
     ewald contribution        =     -24.49920484 Ry
     one-center paw contrib.   =     -42.63374804 Ry

     convergence has been achieved in  11 iterations

     Forces acting on atoms (cartesian axes, Ry/au):

     atom    1 type  1   force =    -0.00000000   -0.00000000    0.00000000
     atom    2 type  2   force =     0.00000000    0.00000000   -0.00000000

     Total force =     0.000000     Total SCF correction =     0.000000


     Computing stress (Cartesian axis) and pressure

          total   stress  (Ry/bohr**3)                   (kbar)     P=       -0.01
  -0.00000010   0.00000000  -0.00000000           -0.01        0.00       -0.00
   0.00000000  -0.00000010   0.00000000            0.00       -0.01        0.00
  -0.00000000   0.00000000  -0.00000010           -0.00        0.00       -0.01


     Writing all to output data dir ../output/AlN.save/
 
     init_run     :      2.98s CPU      3.06s WALL (       2 calls)
     electrons    :     93.74s CPU     95.82s WALL (       5 calls)
     update_pot   :      1.83s CPU      1.84s WALL (       3 calls)
     forces       :      2.86s CPU      2.91s WALL (       5 calls)
     stress       :      7.51s CPU      7.61s WALL (       5 calls)

     Called by init_run:
     wfcinit      :      1.24s CPU      1.27s WALL (       2 calls)
     potinit      :      0.42s CPU      0.43s WALL (       2 calls)
     hinit0       :      1.19s CPU      1.20s WALL (       2 calls)

     Called by electrons:
     c_bands      :     73.28s CPU     74.37s WALL (      45 calls)
     sum_band     :     15.50s CPU     16.05s WALL (      45 calls)
     v_of_rho     :      0.91s CPU      0.92s WALL (      49 calls)
     newd         :      1.22s CPU      1.55s WALL (      49 calls)
     PAW_pot      :      2.51s CPU      2.53s WALL (      52 calls)
     mix_rho      :      0.86s CPU      0.93s WALL (      45 calls)

     Called by c_bands:
     init_us_2    :      3.97s CPU      4.07s WALL (    7665 calls)
     init_us_2:cp :      3.94s CPU      4.05s WALL (    7665 calls)
     cegterg      :     62.06s CPU     62.97s WALL (    3285 calls)

     Called by *egterg:
     cdiaghg      :      0.87s CPU      0.88s WALL (    9889 calls)
     h_psi        :     55.86s CPU     56.66s WALL (   10327 calls)
     s_psi        :      1.29s CPU      1.32s WALL (   10327 calls)
     g_psi        :      0.38s CPU      0.39s WALL (    6896 calls)

     Called by h_psi:
     h_psi:calbec :      1.48s CPU      1.51s WALL (   10327 calls)
     vloc_psi     :     52.79s CPU     53.54s WALL (   10327 calls)
     add_vuspsi   :      1.25s CPU      1.27s WALL (   10327 calls)

     General routines
     calbec       :      2.31s CPU      2.35s WALL (   15656 calls)
     fft          :      0.42s CPU      0.43s WALL (     668 calls)
     ffts         :      0.48s CPU      0.50s WALL (     752 calls)
     fftw         :     54.63s CPU     55.40s WALL (  158202 calls)
 
     Parallel routines
 
     PWSCF        :   1m49.55s CPU   1m52.49s WALL

 
   This run was terminated on:  14:52:43  28Apr2026            

=------------------------------------------------------------------------------=
   JOB DONE.
=------------------------------------------------------------------------------=
