
     Program PWSCF v.7.1 starts on 28Apr2026 at 14:47: 4 

     This program is part of the open-source Quantum ESPRESSO suite
     for quantum simulation of materials; please cite
         "P. Giannozzi et al., J. Phys.:Condens. Matter 21 395502 (2009);
         "P. Giannozzi et al., J. Phys.:Condens. Matter 29 465901 (2017);
         "P. Giannozzi et al., J. Chem. Phys. 152 154105 (2020);
          URL http://www.quantum-espresso.org", 
     in publications or presentations arising from this work. More details at
     http://www.quantum-espresso.org/quote

     Parallel version (MPI & OpenMP), running on       4 processor cores
     Number of MPI processes:                 4
     Threads/MPI process:                     1

     MPI processes distributed on     1 nodes
     92259 MiB available memory on the printing compute node when the environment starts
 
     Reading input from AlN_relax.in

     Current dimensions of program PWSCF are:
     Max number of different atomic species (ntypx) = 10
     Max number of k-points (npk) = 150000
     Max angular momentum in pseudopotentials (lmaxx) =  4
     file Al.pbe-n-kjpaw_psl.1.0.0.UPF: wavefunction(s)  3S 3P renormalized
     file N.pbe-n-kjpaw_psl.1.0.0.UPF: wavefunction(s)  2S renormalized
     Message from routine setup:
     using ibrav=0 with symmetry is DISCOURAGED, use correct ibrav instead
 
     K-points division:     npool     =       2
     R & G space division:  proc/nbgrp/npool/nimage =       2
     Subspace diagonalization in iterative solution of the eigenvalue problem:
     a serial algorithm will be used

 
     Parallelization info
     --------------------
     sticks:   dense  smooth     PW     G-vecs:    dense   smooth      PW
     Min         408     408    120                 7676     7676    1221
     Max         409     409    121                 7677     7677    1224
     Sum         817     817    241                15353    15353    2445
 
     Using Slab Decomposition
 


     bravais-lattice index     =            0
     lattice parameter (alat)  =       5.4385  a.u.
     unit-cell volume          =     113.7417 (a.u.)^3
     number of atoms/cell      =            2
     number of atomic types    =            2
     number of electrons       =         8.00
     number of Kohn-Sham states=            8
     kinetic-energy cutoff     =     100.0000  Ry
     charge density cutoff     =     400.0000  Ry
     scf convergence threshold =      1.0E-08
     mixing beta               =       0.2000
     number of iterations used =            8  local-TF  mixing
     energy convergence thresh.=      1.0E-07
     force convergence thresh. =      1.0E-05
     press convergence thresh. =      5.0E-01
     Exchange-correlation= SLA  PW   PBX  PBC
                           (   1   4   3   4   0   0   0)
     nstep                     =           50


     celldm(1)=   5.438489  celldm(2)=   0.000000  celldm(3)=   0.000000
     celldm(4)=   0.000000  celldm(5)=   0.000000  celldm(6)=   0.000000

     crystal axes: (cart. coord. in units of alat)
               a(1) = (  -0.707107   0.000000   0.707107 )  
               a(2) = (   0.000000   0.707107   0.707107 )  
               a(3) = (  -0.707107   0.707107   0.000000 )  

     reciprocal axes: (cart. coord. in units 2 pi/alat)
               b(1) = ( -0.707107 -0.707107  0.707107 )  
               b(2) = (  0.707107  0.707107  0.707107 )  
               b(3) = ( -0.707107  0.707107 -0.707107 )  


     PseudoPot. # 1 for Al read from file:
     ../../pseudo/Al.pbe-n-kjpaw_psl.1.0.0.UPF
     MD5 check sum: 502b6b27b9c6270cab5dd1084b96fa6d
     Pseudo is Projector augmented-wave + core cor, Zval =  3.0
     Generated using &quot;atomic&quot; code by A. Dal Corso  v.6.3
     Shape of augmentation charge: PSQ
     Using radial grid of 1135 points,  6 beta functions with: 
                l(1) =   0
                l(2) =   0
                l(3) =   1
                l(4) =   1
                l(5) =   2
                l(6) =   2
     Q(r) pseudized with 0 coefficients 


     PseudoPot. # 2 for N  read from file:
     ../../pseudo/N.pbe-n-kjpaw_psl.1.0.0.UPF
     MD5 check sum: 14c48229446f9f2d411169a3abcbc3fa
     Pseudo is Projector augmented-wave + core cor, Zval =  5.0
     Generated using &quot;atomic&quot; code by A. Dal Corso  v.6.3
     Shape of augmentation charge: PSQ
     Using radial grid of 1085 points,  4 beta functions with: 
                l(1) =   0
                l(2) =   0
                l(3) =   1
                l(4) =   1
     Q(r) pseudized with 0 coefficients 


     atomic species   valence    mass     pseudopotential
        Al             3.00    26.98200     Al( 1.00)
        N              5.00    14.00700     N ( 1.00)

     48 Sym. Ops., with inversion, found



   Cartesian axes

     site n.     atom                  positions (alat units)
         1           Al  tau(   1) = (   0.0000000   0.0000000   0.0000000  )
         2           N   tau(   2) = (  -0.7071068   0.7071068   0.7071068  )

     number of k points=     8  Gaussian smearing, width (Ry)=  0.0050
                       cart. coord. in units 2pi/alat
        k(    1) = (   0.0000000   0.0000000   0.0000000), wk =   0.0312500
        k(    2) = (  -0.1767767   0.1767767  -0.1767767), wk =   0.2500000
        k(    3) = (   0.3535534  -0.3535534   0.3535534), wk =   0.1250000
        k(    4) = (   0.0000000   0.3535534   0.0000000), wk =   0.1875000
        k(    5) = (   0.5303301  -0.1767767   0.5303301), wk =   0.7500000
        k(    6) = (   0.3535534   0.0000000   0.3535534), wk =   0.3750000
        k(    7) = (   0.0000000  -0.7071068   0.0000000), wk =   0.0937500
        k(    8) = (  -0.3535534  -0.7071068   0.0000000), wk =   0.1875000

     Dense  grid:    15353 G-vectors     FFT dimensions: (  36,  36,  36)

     Estimated max dynamical RAM per process >      24.22 MB

     Estimated total dynamical RAM >      93.12 MB

     Initial potential from superposition of free atoms

     starting charge       7.9977, renormalised to       8.0000
     Starting wfcs are    8 randomized atomic wfcs
     Checking if some PAW data can be deallocated... 

     total cpu time spent up to now is        1.3 secs

     Self-consistent Calculation

     iteration #  1     ecut=   100.00 Ry     beta= 0.20
     Davidson diagonalization with overlap
     ethr =  1.00E-02,  avg # of iterations =  3.6

     total cpu time spent up to now is        1.4 secs

     total energy              =     -67.96090549 Ry
     estimated scf accuracy    <       0.42736633 Ry

     iteration #  2     ecut=   100.00 Ry     beta= 0.20
     Davidson diagonalization with overlap
     ethr =  5.34E-03,  avg # of iterations =  1.0

     total cpu time spent up to now is        1.5 secs

     total energy              =     -67.85733181 Ry
     estimated scf accuracy    <       0.23701589 Ry

     iteration #  3     ecut=   100.00 Ry     beta= 0.20
     Davidson diagonalization with overlap
     ethr =  2.96E-03,  avg # of iterations =  2.1

     total cpu time spent up to now is        1.6 secs

     total energy              =     -67.89698064 Ry
     estimated scf accuracy    <       0.00728761 Ry

     iteration #  4     ecut=   100.00 Ry     beta= 0.20
     Davidson diagonalization with overlap
     ethr =  9.11E-05,  avg # of iterations =  2.6

     total cpu time spent up to now is        1.8 secs

     total energy              =     -67.89692596 Ry
     estimated scf accuracy    <       0.00211861 Ry

     iteration #  5     ecut=   100.00 Ry     beta= 0.20
     Davidson diagonalization with overlap
     ethr =  2.65E-05,  avg # of iterations =  1.6

     total cpu time spent up to now is        1.9 secs

     total energy              =     -67.89725909 Ry
     estimated scf accuracy    <       0.00000824 Ry

     iteration #  6     ecut=   100.00 Ry     beta= 0.20
     Davidson diagonalization with overlap
     ethr =  1.03E-07,  avg # of iterations =  3.6

     total cpu time spent up to now is        2.0 secs

     total energy              =     -67.89722269 Ry
     estimated scf accuracy    <       0.00007619 Ry

     iteration #  7     ecut=   100.00 Ry     beta= 0.20
     Davidson diagonalization with overlap
     ethr =  1.03E-07,  avg # of iterations =  2.5

     total cpu time spent up to now is        2.1 secs

     total energy              =     -67.89723985 Ry
     estimated scf accuracy    <       0.00000413 Ry

     iteration #  8     ecut=   100.00 Ry     beta= 0.20
     Davidson diagonalization with overlap
     ethr =  5.16E-08,  avg # of iterations =  2.0

     total cpu time spent up to now is        2.2 secs

     total energy              =     -67.89724082 Ry
     estimated scf accuracy    <       0.00000027 Ry

     iteration #  9     ecut=   100.00 Ry     beta= 0.20
     Davidson diagonalization with overlap
     ethr =  3.39E-09,  avg # of iterations =  1.5

     total cpu time spent up to now is        2.4 secs

     total energy              =     -67.89724086 Ry
     estimated scf accuracy    <       0.00000001 Ry

     iteration # 10     ecut=   100.00 Ry     beta= 0.20
     Davidson diagonalization with overlap
     ethr =  1.35E-10,  avg # of iterations =  1.9

     total cpu time spent up to now is        2.5 secs

     End of self-consistent calculation

          k = 0.0000 0.0000 0.0000 (  1917 PWs)   bands (ev):

    -6.4403  10.9732  10.9732  10.9732  16.3415  23.0349  23.0349  23.0349

          k =-0.1768 0.1768-0.1768 (  1928 PWs)   bands (ev):

    -5.2327   6.6515  10.3959  10.3959  17.6466  21.9237  23.1255  23.1255

          k = 0.3536-0.3536 0.3536 (  1916 PWs)   bands (ev):

    -3.2417   2.7468   9.9155   9.9155  16.9624  21.7927  21.7927  23.9572

          k = 0.0000 0.3536 0.0000 (  1924 PWs)   bands (ev):

    -4.8475   7.1610   9.3642   9.3642  18.4146  18.4376  21.9429  25.6815

          k = 0.5303-0.1768 0.5303 (  1917 PWs)   bands (ev):

    -2.8955   4.1860   7.1855   8.9566  17.3813  20.2266  22.4934  24.5914

          k = 0.3536 0.0000 0.3536 (  1923 PWs)   bands (ev):

    -3.5782   5.0710   6.8811   9.8631  19.1711  21.2573  21.4165  23.2976

          k = 0.0000-0.7071 0.0000 (  1924 PWs)   bands (ev):

    -2.2840   3.6773   8.2049   8.2049  15.3528  16.2608  24.7793  27.8801

          k =-0.3536-0.7071 0.0000 (  1912 PWs)   bands (ev):

    -2.1288   5.3379   5.3379   7.0844  18.8414  21.5711  21.5711  22.9587

     the Fermi energy is    12.9499 ev

!    total energy              =     -67.89724086 Ry
     total all-electron energy =      -595.338819 Ry
     estimated scf accuracy    <          5.6E-09 Ry
     smearing contrib. (-TS)   =      -0.00000000 Ry
     internal energy E=F+TS    =     -67.89724086 Ry

     The total energy is F=E-TS. E is the sum of the following terms:
     one-electron contribution =       3.31518283 Ry
     hartree contribution      =       4.58527256 Ry
     xc contribution           =      -8.64716471 Ry
     ewald contribution        =     -24.51862769 Ry
     one-center paw contrib.   =     -42.63190386 Ry

     convergence has been achieved in  10 iterations

     Forces acting on atoms (cartesian axes, Ry/au):

     atom    1 type  1   force =    -0.00000000    0.00000000   -0.00000000
     atom    2 type  2   force =     0.00000000   -0.00000000    0.00000000

     Total force =     0.000000     Total SCF correction =     0.000000


     Computing stress (Cartesian axis) and pressure

          total   stress  (Ry/bohr**3)                   (kbar)     P=        6.58
   0.00004470  -0.00000000   0.00000000            6.58       -0.00        0.00
  -0.00000000   0.00004470   0.00000000           -0.00        6.58        0.00
   0.00000000   0.00000000   0.00004470            0.00        0.00        6.58


     BFGS Geometry Optimization
     Energy error            =      0.0E+00 Ry
     Gradient error          =      4.6E-32 Ry/Bohr
     Cell gradient error     =      6.6E+00 kbar

     number of scf cycles    =   1
     number of bfgs steps    =   0

     enthalpy           new  =     -67.8972408586 Ry

     new trust radius        =       0.0023836451 bohr
     new conv_thr            =       0.0000000100 Ry

     new unit-cell volume =    114.12346 a.u.^3 (    16.91135 Ang^3 )
     density =      4.02474 g/cm^3

CELL_PARAMETERS (bohr)
  -3.849889901   0.000000000   3.849889901
   0.000000000   3.849889901   3.849889901
  -3.849889901   3.849889901  -0.000000000

ATOMIC_POSITIONS (crystal)
Al            0.0000000000       -0.0000000000        0.0000000000
N             0.5000000000        0.5000000000        0.5000000000



     Writing config-only to output data dir ../output/AlN.save/
     NEW-OLD atomic charge density approx. for the potential
     extrapolated charge    8.02675, renormalised to    8.00000

     total cpu time spent up to now is        3.5 secs

     Self-consistent Calculation

     iteration #  1     ecut=   100.00 Ry     beta= 0.20
     Davidson diagonalization with overlap
     ethr =  1.00E-06,  avg # of iterations =  2.0

     total cpu time spent up to now is        3.7 secs

     total energy              =     -67.89714828 Ry
     estimated scf accuracy    <       0.00012047 Ry

     iteration #  2     ecut=   100.00 Ry     beta= 0.20
     Davidson diagonalization with overlap
     ethr =  1.51E-06,  avg # of iterations =  2.0

     total cpu time spent up to now is        3.8 secs

     total energy              =     -67.89725024 Ry
     estimated scf accuracy    <       0.00001661 Ry

     iteration #  3     ecut=   100.00 Ry     beta= 0.20
     Davidson diagonalization with overlap
     ethr =  2.08E-07,  avg # of iterations =  1.0

     total cpu time spent up to now is        3.9 secs

     total energy              =     -67.89724109 Ry
     estimated scf accuracy    <       0.00001229 Ry

     iteration #  4     ecut=   100.00 Ry     beta= 0.20
     Davidson diagonalization with overlap
     ethr =  1.54E-07,  avg # of iterations =  2.0

     total cpu time spent up to now is        4.0 secs

     total energy              =     -67.89725138 Ry
     estimated scf accuracy    <       0.00000880 Ry

     iteration #  5     ecut=   100.00 Ry     beta= 0.20
     Davidson diagonalization with overlap
     ethr =  1.10E-07,  avg # of iterations =  1.0

     total cpu time spent up to now is        4.1 secs

     total energy              =     -67.89724390 Ry
     estimated scf accuracy    <       0.00001517 Ry

     iteration #  6     ecut=   100.00 Ry     beta= 0.20
     Davidson diagonalization with overlap
     ethr =  1.10E-07,  avg # of iterations =  2.0

     total cpu time spent up to now is        4.3 secs

     total energy              =     -67.89724627 Ry
     estimated scf accuracy    <       0.00000016 Ry

     iteration #  7     ecut=   100.00 Ry     beta= 0.20
     Davidson diagonalization with overlap
     ethr =  1.99E-09,  avg # of iterations =  2.2

     total cpu time spent up to now is        4.4 secs

     End of self-consistent calculation

          k = 0.0000 0.0000 0.0000 (  1917 PWs)   bands (ev):

    -6.4569  10.9265  10.9265  10.9265  16.2477  22.9771  22.9771  22.9771

          k =-0.1766 0.1766-0.1766 (  1928 PWs)   bands (ev):

    -5.2533   6.6120  10.3527  10.3527  17.5696  21.8487  23.0540  23.0540

          k = 0.3532-0.3532 0.3532 (  1916 PWs)   bands (ev):

    -3.2715   2.7212   9.8750   9.8750  16.8945  21.7187  21.7187  23.8602

          k =-0.0000 0.3532-0.0000 (  1924 PWs)   bands (ev):

    -4.8695   7.1198   9.3231   9.3231  18.3522  18.3680  21.8604  25.6005

          k = 0.5297-0.1766 0.5297 (  1917 PWs)   bands (ev):

    -2.9264   4.1567   7.1510   8.9175  17.3123  20.1559  22.4158  24.5083

          k = 0.3532 0.0000 0.3532 (  1923 PWs)   bands (ev):

    -3.6055   5.0358   6.8486   9.8225  19.0993  21.1667  21.3506  23.2156

          k = 0.0000-0.7063 0.0000 (  1924 PWs)   bands (ev):

    -2.3184   3.6529   8.1668   8.1668  15.2743  16.2192  24.6921  27.7812

          k =-0.3532-0.7063 0.0000 (  1912 PWs)   bands (ev):

    -2.1641   5.3094   5.3094   7.0462  18.7599  21.5057  21.5057  22.8719

     the Fermi energy is    12.8871 ev

!    total energy              =     -67.89724633 Ry
     total all-electron energy =      -595.338825 Ry
     estimated scf accuracy    <          3.0E-09 Ry
     smearing contrib. (-TS)   =      -0.00000000 Ry
     internal energy E=F+TS    =     -67.89724633 Ry

     The total energy is F=E-TS. E is the sum of the following terms:
     one-electron contribution =       3.27654059 Ry
     hartree contribution      =       4.59108986 Ry
     xc contribution           =      -8.64224638 Ry
     ewald contribution        =     -24.49125844 Ry
     one-center paw contrib.   =     -42.63137197 Ry

     convergence has been achieved in   7 iterations

     Forces acting on atoms (cartesian axes, Ry/au):

     atom    1 type  1   force =     0.00000000   -0.00000000    0.00000000
     atom    2 type  2   force =    -0.00000000   -0.00000000    0.00000000

     Total force =     0.000000     Total SCF correction =     0.000000


     Computing stress (Cartesian axis) and pressure

          total   stress  (Ry/bohr**3)                   (kbar)     P=       -2.07
  -0.00001404   0.00000000  -0.00000000           -2.07        0.00       -0.00
   0.00000000  -0.00001404  -0.00000000            0.00       -2.07       -0.00
   0.00000000  -0.00000000  -0.00001404            0.00       -0.00       -2.07

     Energy error            =      5.5E-06 Ry
     Gradient error          =      1.9E-31 Ry/Bohr
     Cell gradient error     =      2.1E+00 kbar

     number of scf cycles    =   2
     number of bfgs steps    =   1

     enthalpy           old  =     -67.8972408586 Ry
     enthalpy           new  =     -67.8972463326 Ry

     CASE: enthalpy          _new < enthalpy          _old

     new trust radius        =       0.0005710536 bohr
     new conv_thr            =            1.0E-10 Ry

     new unit-cell volume =    114.03198 a.u.^3 (    16.89780 Ang^3 )
     density =      4.02797 g/cm^3

CELL_PARAMETERS (bohr)
  -3.848860919   0.000000000   3.848860919
   0.000000000   3.848860919   3.848860919
  -3.848860919   3.848860919  -0.000000000

ATOMIC_POSITIONS (crystal)
Al            0.0000000000        0.0000000000       -0.0000000000
N             0.5000000000        0.5000000000        0.5000000000



     Writing config-only to output data dir ../output/AlN.save/
     NEW-OLD atomic charge density approx. for the potential
     extrapolated charge    7.99358, renormalised to    8.00000

     total cpu time spent up to now is        5.2 secs

     Self-consistent Calculation

     iteration #  1     ecut=   100.00 Ry     beta= 0.20
     Davidson diagonalization with overlap
     ethr =  1.00E-06,  avg # of iterations =  2.0

     Threshold (ethr) on eigenvalues was too large:
     Diagonalizing with lowered threshold

     Davidson diagonalization with overlap
     ethr =  8.05E-08,  avg # of iterations =  1.0

     total cpu time spent up to now is        5.4 secs

     total energy              =     -67.89724142 Ry
     estimated scf accuracy    <       0.00000655 Ry

     iteration #  2     ecut=   100.00 Ry     beta= 0.20
     Davidson diagonalization with overlap
     ethr =  8.18E-08,  avg # of iterations =  2.0

     total cpu time spent up to now is        5.5 secs

     total energy              =     -67.89724731 Ry
     estimated scf accuracy    <       0.00000112 Ry

     iteration #  3     ecut=   100.00 Ry     beta= 0.20
     Davidson diagonalization with overlap
     ethr =  1.41E-08,  avg # of iterations =  1.0

     total cpu time spent up to now is        5.6 secs

     total energy              =     -67.89724668 Ry
     estimated scf accuracy    <       0.00000084 Ry

     iteration #  4     ecut=   100.00 Ry     beta= 0.20
     Davidson diagonalization with overlap
     ethr =  1.04E-08,  avg # of iterations =  2.0

     total cpu time spent up to now is        5.7 secs

     total energy              =     -67.89724749 Ry
     estimated scf accuracy    <       0.00000059 Ry

     iteration #  5     ecut=   100.00 Ry     beta= 0.20
     Davidson diagonalization with overlap
     ethr =  7.37E-09,  avg # of iterations =  1.0

     total cpu time spent up to now is        5.8 secs

     total energy              =     -67.89724687 Ry
     estimated scf accuracy    <       0.00000140 Ry

     iteration #  6     ecut=   100.00 Ry     beta= 0.20
     Davidson diagonalization with overlap
     ethr =  7.37E-09,  avg # of iterations =  2.0

     total cpu time spent up to now is        6.0 secs

     total energy              =     -67.89724703 Ry
     estimated scf accuracy    <       0.00000005 Ry

     iteration #  7     ecut=   100.00 Ry     beta= 0.20
     Davidson diagonalization with overlap
     ethr =  6.20E-10,  avg # of iterations =  2.1

     total cpu time spent up to now is        6.1 secs

     total energy              =     -67.89724704 Ry
     estimated scf accuracy    <          3.8E-10 Ry

     iteration #  8     ecut=   100.00 Ry     beta= 0.20
     Davidson diagonalization with overlap
     ethr =  4.69E-12,  avg # of iterations =  3.8

     total cpu time spent up to now is        6.2 secs

     End of self-consistent calculation

          k = 0.0000 0.0000 0.0000 (  1917 PWs)   bands (ev):

    -6.4528  10.9378  10.9378  10.9378  16.2702  22.9908  22.9908  22.9908

          k =-0.1766 0.1766-0.1766 (  1928 PWs)   bands (ev):

    -5.2483   6.6216  10.3632  10.3632  17.5880  21.8667  23.0710  23.0710

          k = 0.3533-0.3533 0.3533 (  1916 PWs)   bands (ev):

    -3.2642   2.7274   9.8848   9.8848  16.9108  21.7363  21.7363  23.8835

          k =-0.0000 0.3533-0.0000 (  1924 PWs)   bands (ev):

    -4.8641   7.1298   9.3330   9.3330  18.3726  18.3791  21.8801  25.6199

          k = 0.5299-0.1766 0.5299 (  1917 PWs)   bands (ev):

    -2.9189   4.1638   7.1594   8.9270  17.3288  20.1729  22.4344  24.5281

          k = 0.3533-0.0000 0.3533 (  1923 PWs)   bands (ev):

    -3.5989   5.0443   6.8565   9.8324  19.1165  21.1884  21.3665  23.2352

          k = 0.0000-0.7065 0.0000 (  1924 PWs)   bands (ev):

    -2.3100   3.6588   8.1761   8.1761  15.2930  16.2291  24.7131  27.8049

          k =-0.3533-0.7065 0.0000 (  1912 PWs)   bands (ev):

    -2.1555   5.3163   5.3163   7.0554  18.7794  21.5214  21.5214  22.8926

     the Fermi energy is    12.9022 ev

!    total energy              =     -67.89724704 Ry
     total all-electron energy =      -595.338825 Ry
     estimated scf accuracy    <          7.1E-11 Ry
     smearing contrib. (-TS)   =      -0.00000000 Ry
     internal energy E=F+TS    =     -67.89724704 Ry

     The total energy is F=E-TS. E is the sum of the following terms:
     one-electron contribution =       3.28587884 Ry
     hartree contribution      =       4.58957346 Ry
     xc contribution           =      -8.64339086 Ry
     ewald contribution        =     -24.49780611 Ry
     one-center paw contrib.   =     -42.63150237 Ry

     convergence has been achieved in   8 iterations

     Forces acting on atoms (cartesian axes, Ry/au):

     atom    1 type  1   force =     0.00000000    0.00000000   -0.00000000
     atom    2 type  2   force =     0.00000000    0.00000000    0.00000000

     Total force =     0.000000     Total SCF correction =     0.000000


     Computing stress (Cartesian axis) and pressure

          total   stress  (Ry/bohr**3)                   (kbar)     P=       -0.10
  -0.00000067   0.00000000   0.00000000           -0.10        0.00        0.00
   0.00000000  -0.00000067   0.00000000            0.00       -0.10        0.00
   0.00000000  -0.00000000  -0.00000067            0.00       -0.00       -0.10

     Energy error            =      7.1E-07 Ry
     Gradient error          =      1.4E-31 Ry/Bohr
     Cell gradient error     =      9.8E-02 kbar

     number of scf cycles    =   3
     number of bfgs steps    =   2

     enthalpy           old  =     -67.8972463326 Ry
     enthalpy           new  =     -67.8972470418 Ry

     CASE: enthalpy          _new < enthalpy          _old

     small trust_radius: resetting bfgs history

     new trust radius        =       0.0000355164 bohr
     new conv_thr            =            1.0E-10 Ry

     new unit-cell volume =    114.02629 a.u.^3 (    16.89695 Ang^3 )
     density =      4.02817 g/cm^3

CELL_PARAMETERS (bohr)
  -3.848796914   0.000000000   3.848796914
   0.000000000   3.848796914   3.848796914
  -3.848796914   3.848796914  -0.000000000

ATOMIC_POSITIONS (crystal)
Al           -0.0000000000        0.0000000000        0.0000000000
N             0.5000000000        0.5000000000        0.5000000000



     Writing config-only to output data dir ../output/AlN.save/
     NEW-OLD atomic charge density approx. for the potential
     extrapolated charge    7.99960, renormalised to    8.00000

     total cpu time spent up to now is        7.0 secs

     Self-consistent Calculation

     iteration #  1     ecut=   100.00 Ry     beta= 0.20
     Davidson diagonalization with overlap
     ethr =  1.00E-06,  avg # of iterations =  1.9

     Threshold (ethr) on eigenvalues was too large:
     Diagonalizing with lowered threshold

     Davidson diagonalization with overlap
     ethr =  2.67E-10,  avg # of iterations =  1.0

     total cpu time spent up to now is        7.2 secs

     total energy              =     -67.89724702 Ry
     estimated scf accuracy    <       0.00000002 Ry

     iteration #  2     ecut=   100.00 Ry     beta= 0.20
     Davidson diagonalization with overlap
     ethr =  2.90E-10,  avg # of iterations =  2.0

     total cpu time spent up to now is        7.3 secs

     total energy              =     -67.89724705 Ry
     estimated scf accuracy    <          4.9E-09 Ry

     iteration #  3     ecut=   100.00 Ry     beta= 0.20
     Davidson diagonalization with overlap
     ethr =  6.14E-11,  avg # of iterations =  1.0

     total cpu time spent up to now is        7.4 secs

     total energy              =     -67.89724704 Ry
     estimated scf accuracy    <          3.7E-09 Ry

     iteration #  4     ecut=   100.00 Ry     beta= 0.20
     Davidson diagonalization with overlap
     ethr =  4.59E-11,  avg # of iterations =  2.0

     total cpu time spent up to now is        7.5 secs

     total energy              =     -67.89724705 Ry
     estimated scf accuracy    <          3.2E-09 Ry

     iteration #  5     ecut=   100.00 Ry     beta= 0.20
     Davidson diagonalization with overlap
     ethr =  3.97E-11,  avg # of iterations =  1.0

     total cpu time spent up to now is        7.7 secs

     total energy              =     -67.89724704 Ry
     estimated scf accuracy    <          5.8E-09 Ry

     iteration #  6     ecut=   100.00 Ry     beta= 0.20
     Davidson diagonalization with overlap
     ethr =  3.97E-11,  avg # of iterations =  1.9

     total cpu time spent up to now is        7.8 secs

     total energy              =     -67.89724704 Ry
     estimated scf accuracy    <          1.8E-10 Ry

     iteration #  7     ecut=   100.00 Ry     beta= 0.20
     Davidson diagonalization with overlap
     ethr =  2.20E-12,  avg # of iterations =  2.1

     total cpu time spent up to now is        7.9 secs

     End of self-consistent calculation

          k = 0.0000 0.0000 0.0000 (  1917 PWs)   bands (ev):

    -6.4526  10.9386  10.9386  10.9386  16.2716  22.9917  22.9917  22.9917

          k =-0.1766 0.1766-0.1766 (  1928 PWs)   bands (ev):

    -5.2479   6.6222  10.3639  10.3639  17.5892  21.8678  23.0721  23.0721

          k = 0.3533-0.3533 0.3533 (  1916 PWs)   bands (ev):

    -3.2638   2.7278   9.8855   9.8855  16.9118  21.7374  21.7374  23.8850

          k = 0.0000 0.3533 0.0000 (  1924 PWs)   bands (ev):

    -4.8638   7.1304   9.3337   9.3337  18.3739  18.3798  21.8814  25.6211

          k = 0.5299-0.1766 0.5299 (  1917 PWs)   bands (ev):

    -2.9184   4.1642   7.1599   8.9276  17.3298  20.1739  22.4356  24.5293

          k = 0.3533-0.0000 0.3533 (  1923 PWs)   bands (ev):

    -3.5984   5.0449   6.8570   9.8330  19.1175  21.1898  21.3675  23.2364

          k = 0.0000-0.7065 0.0000 (  1924 PWs)   bands (ev):

    -2.3095   3.6592   8.1767   8.1767  15.2942  16.2297  24.7145  27.8064

          k =-0.3533-0.7065-0.0000 (  1912 PWs)   bands (ev):

    -2.1549   5.3168   5.3168   7.0560  18.7806  21.5224  21.5224  22.8939

     the Fermi energy is    12.9031 ev

!    total energy              =     -67.89724704 Ry
     total all-electron energy =      -595.338825 Ry
     estimated scf accuracy    <          1.4E-13 Ry
     smearing contrib. (-TS)   =      -0.00000000 Ry
     internal energy E=F+TS    =     -67.89724704 Ry

     The total energy is F=E-TS. E is the sum of the following terms:
     one-electron contribution =       3.28646705 Ry
     hartree contribution      =       4.58946881 Ry
     xc contribution           =      -8.64345925 Ry
     ewald contribution        =     -24.49821351 Ry
     one-center paw contrib.   =     -42.63151015 Ry

     convergence has been achieved in   7 iterations

     Forces acting on atoms (cartesian axes, Ry/au):

     atom    1 type  1   force =    -0.00000000   -0.00000000    0.00000000
     atom    2 type  2   force =    -0.00000000   -0.00000000    0.00000000

     Total force =     0.000000     Total SCF correction =     0.000000


     Computing stress (Cartesian axis) and pressure

          total   stress  (Ry/bohr**3)                   (kbar)     P=        0.01
   0.00000009   0.00000000   0.00000000            0.01        0.00        0.00
   0.00000000   0.00000009   0.00000000            0.00        0.01        0.00
  -0.00000000  -0.00000000   0.00000009           -0.00       -0.00        0.01

     Energy error            =      2.2E-09 Ry
     Gradient error          =      2.3E-31 Ry/Bohr
     Cell gradient error     =      1.4E-02 kbar

     bfgs converged in   4 scf cycles and   3 bfgs steps
     (criteria: energy <  1.0E-07 Ry, force <  1.0E-05 Ry/Bohr, cell <  5.0E-01 kbar)

     End of BFGS Geometry Optimization

     Final enthalpy           =     -67.8972470439 Ry

     File ../output/AlN.bfgs deleted, as requested
Begin final coordinates
     new unit-cell volume =    114.02629 a.u.^3 (    16.89695 Ang^3 )
     density =      4.02817 g/cm^3

CELL_PARAMETERS (bohr)
  -3.848796914   0.000000000   3.848796914
   0.000000000   3.848796914   3.848796914
  -3.848796914   3.848796914  -0.000000000

ATOMIC_POSITIONS (crystal)
Al           -0.0000000000        0.0000000000        0.0000000000
N             0.5000000000        0.5000000000        0.5000000000
End final coordinates



     Writing config-only to output data dir ../output/AlN.save/

     Final scf calculation at the relaxed structure.
     The G-vectors are recalculated for the final unit cell
     Results may differ from those at the preceding step.
 
     Parallelization info
     --------------------
     sticks:   dense  smooth     PW     G-vecs:    dense   smooth      PW
     Min         411     411    120                 7736     7736    1221
     Max         412     412    121                 7737     7737    1224
     Sum         823     823    241                15473    15473    2445
 
     Using Slab Decomposition
 


     bravais-lattice index     =            0
     lattice parameter (alat)  =       5.4385  a.u.
     unit-cell volume          =     114.0263 (a.u.)^3
     number of atoms/cell      =            2
     number of atomic types    =            2
     number of electrons       =         8.00
     number of Kohn-Sham states=            8
     kinetic-energy cutoff     =     100.0000  Ry
     charge density cutoff     =     400.0000  Ry
     scf convergence threshold =      1.0E-10
     mixing beta               =       0.2000
     number of iterations used =            8  local-TF  mixing
     press convergence thresh. =      5.0E-01
     Exchange-correlation= SLA  PW   PBX  PBC
                           (   1   4   3   4   0   0   0)

     celldm(1)=   5.438489  celldm(2)=   0.000000  celldm(3)=   0.000000
     celldm(4)=   0.000000  celldm(5)=   0.000000  celldm(6)=   0.000000

     crystal axes: (cart. coord. in units of alat)
               a(1) = (  -0.707696   0.000000   0.707696 )  
               a(2) = (   0.000000   0.707696   0.707696 )  
               a(3) = (  -0.707696   0.707696  -0.000000 )  

     reciprocal axes: (cart. coord. in units 2 pi/alat)
               b(1) = ( -0.706518 -0.706518  0.706518 )  
               b(2) = (  0.706518  0.706518  0.706518 )  
               b(3) = ( -0.706518  0.706518 -0.706518 )  


     PseudoPot. # 1 for Al read from file:
     ../../pseudo/Al.pbe-n-kjpaw_psl.1.0.0.UPF
     MD5 check sum: 502b6b27b9c6270cab5dd1084b96fa6d
     Pseudo is Projector augmented-wave + core cor, Zval =  3.0
     Generated using &quot;atomic&quot; code by A. Dal Corso  v.6.3
     Shape of augmentation charge: PSQ
     Using radial grid of 1135 points,  6 beta functions with: 
                l(1) =   0
                l(2) =   0
                l(3) =   1
                l(4) =   1
                l(5) =   2
                l(6) =   2
     Q(r) pseudized with 0 coefficients 


     PseudoPot. # 2 for N  read from file:
     ../../pseudo/N.pbe-n-kjpaw_psl.1.0.0.UPF
     MD5 check sum: 14c48229446f9f2d411169a3abcbc3fa
     Pseudo is Projector augmented-wave + core cor, Zval =  5.0
     Generated using &quot;atomic&quot; code by A. Dal Corso  v.6.3
     Shape of augmentation charge: PSQ
     Using radial grid of 1085 points,  4 beta functions with: 
                l(1) =   0
                l(2) =   0
                l(3) =   1
                l(4) =   1
     Q(r) pseudized with 0 coefficients 


     atomic species   valence    mass     pseudopotential
        Al             3.00    26.98200     Al( 1.00)
        N              5.00    14.00700     N ( 1.00)

     48 Sym. Ops., with inversion, found



   Cartesian axes

     site n.     atom                  positions (alat units)
         1           Al  tau(   1) = (   0.0000000   0.0000000   0.0000000  )
         2           N   tau(   2) = (  -0.7076960   0.7076960   0.7076960  )

     number of k points=     8  Gaussian smearing, width (Ry)=  0.0050
                       cart. coord. in units 2pi/alat
        k(    1) = (   0.0000000   0.0000000   0.0000000), wk =   0.0312500
        k(    2) = (  -0.1766295   0.1766295  -0.1766295), wk =   0.2500000
        k(    3) = (   0.3532590  -0.3532590   0.3532590), wk =   0.1250000
        k(    4) = (   0.0000000   0.3532590   0.0000000), wk =   0.1875000
        k(    5) = (   0.5298885  -0.1766295   0.5298885), wk =   0.7500000
        k(    6) = (   0.3532590  -0.0000000   0.3532590), wk =   0.3750000
        k(    7) = (   0.0000000  -0.7065180   0.0000000), wk =   0.0937500
        k(    8) = (  -0.3532590  -0.7065180  -0.0000000), wk =   0.1875000

     Dense  grid:    15473 G-vectors     FFT dimensions: (  36,  36,  36)

     Estimated max dynamical RAM per process >      24.46 MB

     Estimated total dynamical RAM >      94.05 MB

     Initial potential from superposition of free atoms

     starting charge       7.9977, renormalised to       8.0000
     Starting wfcs are    8 randomized atomic wfcs
     Checking if some PAW data can be deallocated... 

     total cpu time spent up to now is        8.9 secs

     Self-consistent Calculation

     iteration #  1     ecut=   100.00 Ry     beta= 0.20
     Davidson diagonalization with overlap
     ethr =  1.00E-06,  avg # of iterations = 12.5

     total cpu time spent up to now is        9.1 secs

     total energy              =     -67.96289808 Ry
     estimated scf accuracy    <       0.42151251 Ry

     iteration #  2     ecut=   100.00 Ry     beta= 0.20
     Davidson diagonalization with overlap
     ethr =  5.27E-03,  avg # of iterations =  1.0

     total cpu time spent up to now is        9.2 secs

     total energy              =     -67.85507022 Ry
     estimated scf accuracy    <       0.23777278 Ry

     iteration #  3     ecut=   100.00 Ry     beta= 0.20
     Davidson diagonalization with overlap
     ethr =  2.97E-03,  avg # of iterations =  1.8

     total cpu time spent up to now is        9.3 secs

     total energy              =     -67.89700535 Ry
     estimated scf accuracy    <       0.00683354 Ry

     iteration #  4     ecut=   100.00 Ry     beta= 0.20
     Davidson diagonalization with overlap
     ethr =  8.54E-05,  avg # of iterations =  1.5

     total cpu time spent up to now is        9.4 secs

     total energy              =     -67.89722613 Ry
     estimated scf accuracy    <       0.00075919 Ry

     iteration #  5     ecut=   100.00 Ry     beta= 0.20
     Davidson diagonalization with overlap
     ethr =  9.49E-06,  avg # of iterations =  2.2

     total cpu time spent up to now is        9.6 secs

     total energy              =     -67.89725007 Ry
     estimated scf accuracy    <       0.00000813 Ry

     iteration #  6     ecut=   100.00 Ry     beta= 0.20
     Davidson diagonalization with overlap
     ethr =  1.02E-07,  avg # of iterations =  2.6

     total cpu time spent up to now is        9.7 secs

     total energy              =     -67.89724660 Ry
     estimated scf accuracy    <       0.00001165 Ry

     iteration #  7     ecut=   100.00 Ry     beta= 0.20
     Davidson diagonalization with overlap
     ethr =  1.02E-07,  avg # of iterations =  1.0

     total cpu time spent up to now is        9.8 secs

     total energy              =     -67.89724721 Ry
     estimated scf accuracy    <       0.00000010 Ry

     iteration #  8     ecut=   100.00 Ry     beta= 0.20
     Davidson diagonalization with overlap
     ethr =  1.30E-09,  avg # of iterations =  2.4

     total cpu time spent up to now is        9.9 secs

     total energy              =     -67.89724715 Ry
     estimated scf accuracy    <       0.00000011 Ry

     iteration #  9     ecut=   100.00 Ry     beta= 0.20
     Davidson diagonalization with overlap
     ethr =  1.30E-09,  avg # of iterations =  1.1

     total cpu time spent up to now is       10.1 secs

     total energy              =     -67.89724714 Ry
     estimated scf accuracy    <       0.00000002 Ry

     iteration # 10     ecut=   100.00 Ry     beta= 0.20
     Davidson diagonalization with overlap
     ethr =  2.56E-10,  avg # of iterations =  2.0

     total cpu time spent up to now is       10.2 secs

     total energy              =     -67.89724714 Ry
     estimated scf accuracy    <          8.1E-10 Ry

     iteration # 11     ecut=   100.00 Ry     beta= 0.20
     Davidson diagonalization with overlap
     ethr =  1.01E-11,  avg # of iterations =  2.0

     total cpu time spent up to now is       10.3 secs

     total energy              =     -67.89724714 Ry
     estimated scf accuracy    <          1.3E-10 Ry

     iteration # 12     ecut=   100.00 Ry     beta= 0.20
     Davidson diagonalization with overlap
     ethr =  1.66E-12,  avg # of iterations =  1.8

     total cpu time spent up to now is       10.4 secs

     End of self-consistent calculation

          k = 0.0000 0.0000 0.0000 (  1917 PWs)   bands (ev):

    -6.4526  10.9386  10.9386  10.9386  16.2716  22.9917  22.9917  22.9917

          k =-0.1766 0.1766-0.1766 (  1928 PWs)   bands (ev):

    -5.2479   6.6222  10.3639  10.3639  17.5892  21.8678  23.0721  23.0721

          k = 0.3533-0.3533 0.3533 (  1916 PWs)   bands (ev):

    -3.2638   2.7278   9.8855   9.8855  16.9118  21.7374  21.7374  23.8850

          k = 0.0000 0.3533 0.0000 (  1924 PWs)   bands (ev):

    -4.8638   7.1304   9.3337   9.3337  18.3739  18.3798  21.8814  25.6211

          k = 0.5299-0.1766 0.5299 (  1917 PWs)   bands (ev):

    -2.9184   4.1642   7.1599   8.9276  17.3298  20.1739  22.4356  24.5293

          k = 0.3533-0.0000 0.3533 (  1923 PWs)   bands (ev):

    -3.5984   5.0449   6.8570   9.8330  19.1175  21.1898  21.3675  23.2364

          k = 0.0000-0.7065 0.0000 (  1964 PWs)   bands (ev):

    -2.3095   3.6592   8.1767   8.1767  15.2942  16.2297  24.7145  27.8064

          k =-0.3533-0.7065-0.0000 (  1912 PWs)   bands (ev):

    -2.1549   5.3168   5.3168   7.0560  18.7806  21.5224  21.5224  22.8939

     the Fermi energy is    12.9031 ev

!    total energy              =     -67.89724714 Ry
     total all-electron energy =      -595.338826 Ry
     estimated scf accuracy    <          6.9E-11 Ry
     smearing contrib. (-TS)   =      -0.00000000 Ry
     internal energy E=F+TS    =     -67.89724714 Ry

     The total energy is F=E-TS. E is the sum of the following terms:
     one-electron contribution =       3.28647975 Ry
     hartree contribution      =       4.58945180 Ry
     xc contribution           =      -8.64345491 Ry
     ewald contribution        =     -24.49821351 Ry
     one-center paw contrib.   =     -42.63151028 Ry

     convergence has been achieved in  12 iterations

     Forces acting on atoms (cartesian axes, Ry/au):

     atom    1 type  1   force =    -0.00000000   -0.00000000   -0.00000000
     atom    2 type  2   force =    -0.00000000   -0.00000000    0.00000000

     Total force =     0.000000     Total SCF correction =     0.000000


     Computing stress (Cartesian axis) and pressure

          total   stress  (Ry/bohr**3)                   (kbar)     P=       -0.00
  -0.00000002  -0.00000000   0.00000000           -0.00       -0.00        0.00
  -0.00000000  -0.00000002   0.00000000           -0.00       -0.00        0.00
   0.00000000  -0.00000000  -0.00000002            0.00       -0.00       -0.00


     Writing all to output data dir ../output/AlN.save/
 
     init_run     :      0.97s CPU      1.03s WALL (       2 calls)
     electrons    :      5.20s CPU      5.77s WALL (       5 calls)
     update_pot   :      0.74s CPU      0.74s WALL (       3 calls)
     forces       :      0.66s CPU      0.67s WALL (       5 calls)
     stress       :      1.54s CPU      1.58s WALL (       5 calls)

     Called by init_run:
     wfcinit      :      0.02s CPU      0.03s WALL (       2 calls)
     potinit      :      0.20s CPU      0.23s WALL (       2 calls)
     hinit0       :      0.66s CPU      0.67s WALL (       2 calls)

     Called by electrons:
     c_bands      :      1.36s CPU      1.40s WALL (      46 calls)
     sum_band     :      0.76s CPU      0.90s WALL (      46 calls)
     v_of_rho     :      0.31s CPU      0.32s WALL (      49 calls)
     newd         :      0.44s CPU      0.56s WALL (      49 calls)
     PAW_pot      :      2.47s CPU      2.49s WALL (      52 calls)
     mix_rho      :      0.26s CPU      0.27s WALL (      46 calls)

     Called by c_bands:
     init_us_2    :      0.08s CPU      0.09s WALL (     428 calls)
     init_us_2:cp :      0.08s CPU      0.09s WALL (     428 calls)
     cegterg      :      1.12s CPU      1.15s WALL (     184 calls)

     Called by *egterg:
     cdiaghg      :      0.04s CPU      0.04s WALL (     555 calls)
     h_psi        :      0.97s CPU      1.00s WALL (     583 calls)
     s_psi        :      0.02s CPU      0.02s WALL (     583 calls)
     g_psi        :      0.01s CPU      0.01s WALL (     391 calls)

     Called by h_psi:
     h_psi:calbec :      0.03s CPU      0.04s WALL (     583 calls)
     vloc_psi     :      0.91s CPU      0.93s WALL (     583 calls)
     add_vuspsi   :      0.02s CPU      0.02s WALL (     583 calls)

     General routines
     calbec       :      0.05s CPU      0.05s WALL (     879 calls)
     fft          :      0.14s CPU      0.14s WALL (     669 calls)
     ffts         :      0.14s CPU      0.14s WALL (     755 calls)
     fftw         :      0.95s CPU      0.97s WALL (    8806 calls)
 
     Parallel routines
 
     PWSCF        :      9.42s CPU     11.11s WALL

 
   This run was terminated on:  14:47:15  28Apr2026            

=------------------------------------------------------------------------------=
   JOB DONE.
=------------------------------------------------------------------------------=
