
     Program PWSCF v.7.1 starts on 27Apr2026 at 16:33:58 

     This program is part of the open-source Quantum ESPRESSO suite
     for quantum simulation of materials; please cite
         "P. Giannozzi et al., J. Phys.:Condens. Matter 21 395502 (2009);
         "P. Giannozzi et al., J. Phys.:Condens. Matter 29 465901 (2017);
         "P. Giannozzi et al., J. Chem. Phys. 152 154105 (2020);
          URL http://www.quantum-espresso.org", 
     in publications or presentations arising from this work. More details at
     http://www.quantum-espresso.org/quote

     Parallel version (MPI & OpenMP), running on       4 processor cores
     Number of MPI processes:                 4
     Threads/MPI process:                     1

     MPI processes distributed on     1 nodes
     91106 MiB available memory on the printing compute node when the environment starts
 
     Reading input from AlN_scf.in

     Current dimensions of program PWSCF are:
     Max number of different atomic species (ntypx) = 10
     Max number of k-points (npk) = 150000
     Max angular momentum in pseudopotentials (lmaxx) =  4
     file Al.pbe-n-kjpaw_psl.1.0.0.UPF: wavefunction(s)  3S 3P renormalized
     file N.pbe-n-kjpaw_psl.1.0.0.UPF: wavefunction(s)  2S renormalized
     Message from routine setup:
     using ibrav=0 with symmetry is DISCOURAGED, use correct ibrav instead
 
     K-points division:     npool     =       2
     R & G space division:  proc/nbgrp/npool/nimage =       2
     Subspace diagonalization in iterative solution of the eigenvalue problem:
     a serial algorithm will be used

 
     Parallelization info
     --------------------
     sticks:   dense  smooth     PW     G-vecs:    dense   smooth      PW
     Min         819     819    237                21799    21799    3426
     Max         820     820    238                21800    21800    3429
     Sum        1639    1639    475                43599    43599    6855
 
     Using Slab Decomposition
 


     bravais-lattice index     =            0
     lattice parameter (alat)  =       5.4385  a.u.
     unit-cell volume          =     113.7417 (a.u.)^3
     number of atoms/cell      =            2
     number of atomic types    =            2
     number of electrons       =         8.00
     number of Kohn-Sham states=            4
     kinetic-energy cutoff     =     200.0000  Ry
     charge density cutoff     =     800.0000  Ry
     scf convergence threshold =      1.0E-08
     mixing beta               =       0.2000
     number of iterations used =            8  local-TF  mixing
     Exchange-correlation= SLA  PW   PBX  PBC
                           (   1   4   3   4   0   0   0)

     celldm(1)=   5.438489  celldm(2)=   0.000000  celldm(3)=   0.000000
     celldm(4)=   0.000000  celldm(5)=   0.000000  celldm(6)=   0.000000

     crystal axes: (cart. coord. in units of alat)
               a(1) = (  -0.707107   0.000000   0.707107 )  
               a(2) = (   0.000000   0.707107   0.707107 )  
               a(3) = (  -0.707107   0.707107   0.000000 )  

     reciprocal axes: (cart. coord. in units 2 pi/alat)
               b(1) = ( -0.707107 -0.707107  0.707107 )  
               b(2) = (  0.707107  0.707107  0.707107 )  
               b(3) = ( -0.707107  0.707107 -0.707107 )  


     PseudoPot. # 1 for Al read from file:
     ../../pseudo/Al.pbe-n-kjpaw_psl.1.0.0.UPF
     MD5 check sum: 502b6b27b9c6270cab5dd1084b96fa6d
     Pseudo is Projector augmented-wave + core cor, Zval =  3.0
     Generated using &quot;atomic&quot; code by A. Dal Corso  v.6.3
     Shape of augmentation charge: PSQ
     Using radial grid of 1135 points,  6 beta functions with: 
                l(1) =   0
                l(2) =   0
                l(3) =   1
                l(4) =   1
                l(5) =   2
                l(6) =   2
     Q(r) pseudized with 0 coefficients 


     PseudoPot. # 2 for N  read from file:
     ../../pseudo/N.pbe-n-kjpaw_psl.1.0.0.UPF
     MD5 check sum: 14c48229446f9f2d411169a3abcbc3fa
     Pseudo is Projector augmented-wave + core cor, Zval =  5.0
     Generated using &quot;atomic&quot; code by A. Dal Corso  v.6.3
     Shape of augmentation charge: PSQ
     Using radial grid of 1085 points,  4 beta functions with: 
                l(1) =   0
                l(2) =   0
                l(3) =   1
                l(4) =   1
     Q(r) pseudized with 0 coefficients 


     atomic species   valence    mass     pseudopotential
        Al             3.00    26.98200     Al( 1.00)
        N              5.00    14.00700     N ( 1.00)

     48 Sym. Ops., with inversion, found



   Cartesian axes

     site n.     atom                  positions (alat units)
         1           Al  tau(   1) = (   0.0000000   0.0000000   0.0000000  )
         2           N   tau(   2) = (  -0.7071068   0.7071068   0.7071068  )

     number of k points=  1661

     Number of k-points >= 100: set verbosity='high' to print them.

     Dense  grid:    43599 G-vectors     FFT dimensions: (  50,  50,  50)

     Estimated max dynamical RAM per process >     191.07 MB

     Estimated total dynamical RAM >     753.64 MB

     Initial potential from superposition of free atoms

     starting charge       7.9977, renormalised to       8.0000
     Starting wfcs are    8 randomized atomic wfcs
     Checking if some PAW data can be deallocated... 

     total cpu time spent up to now is        7.3 secs

     Self-consistent Calculation

     iteration #  1     ecut=   200.00 Ry     beta= 0.20
     Davidson diagonalization with overlap
     ethr =  1.00E-02,  avg # of iterations =  1.9

     total cpu time spent up to now is       19.6 secs

     total energy              =     -67.95665745 Ry
     estimated scf accuracy    <       0.44285371 Ry

     iteration #  2     ecut=   200.00 Ry     beta= 0.20
     Davidson diagonalization with overlap
     ethr =  5.54E-03,  avg # of iterations =  1.0

     total cpu time spent up to now is       29.7 secs

     total energy              =     -67.83408978 Ry
     estimated scf accuracy    <       0.26197929 Ry

     iteration #  3     ecut=   200.00 Ry     beta= 0.20
     Davidson diagonalization with overlap
     ethr =  3.27E-03,  avg # of iterations =  2.0

     total cpu time spent up to now is       42.8 secs

     total energy              =     -67.90132682 Ry
     estimated scf accuracy    <       0.00762559 Ry

     iteration #  4     ecut=   200.00 Ry     beta= 0.20
     Davidson diagonalization with overlap
     ethr =  9.53E-05,  avg # of iterations =  2.5

     total cpu time spent up to now is       56.6 secs

     total energy              =     -67.90353534 Ry
     estimated scf accuracy    <       0.00577289 Ry

     iteration #  5     ecut=   200.00 Ry     beta= 0.20
     Davidson diagonalization with overlap
     ethr =  7.22E-05,  avg # of iterations =  1.3

     total cpu time spent up to now is       67.1 secs

     total energy              =     -67.90322811 Ry
     estimated scf accuracy    <       0.00193016 Ry

     iteration #  6     ecut=   200.00 Ry     beta= 0.20
     Davidson diagonalization with overlap
     ethr =  2.41E-05,  avg # of iterations =  2.4

     total cpu time spent up to now is       79.5 secs

     total energy              =     -67.90320773 Ry
     estimated scf accuracy    <       0.00039388 Ry

     iteration #  7     ecut=   200.00 Ry     beta= 0.20
     Davidson diagonalization with overlap
     ethr =  4.92E-06,  avg # of iterations =  3.1

     total cpu time spent up to now is       94.4 secs

     total energy              =     -67.90337878 Ry
     estimated scf accuracy    <       0.00003403 Ry

     iteration #  8     ecut=   200.00 Ry     beta= 0.20
     Davidson diagonalization with overlap
     ethr =  4.25E-07,  avg # of iterations =  2.2

     total cpu time spent up to now is      108.4 secs

     total energy              =     -67.90339018 Ry
     estimated scf accuracy    <       0.00003464 Ry

     iteration #  9     ecut=   200.00 Ry     beta= 0.20
     Davidson diagonalization with overlap
     ethr =  4.25E-07,  avg # of iterations =  2.0

     total cpu time spent up to now is      120.9 secs

     total energy              =     -67.90339476 Ry
     estimated scf accuracy    <       0.00000177 Ry

     iteration # 10     ecut=   200.00 Ry     beta= 0.20
     Davidson diagonalization with overlap
     ethr =  2.21E-08,  avg # of iterations =  1.9

     total cpu time spent up to now is      132.6 secs

     total energy              =     -67.90339465 Ry
     estimated scf accuracy    <       0.00000217 Ry

     iteration # 11     ecut=   200.00 Ry     beta= 0.20
     Davidson diagonalization with overlap
     ethr =  2.21E-08,  avg # of iterations =  1.0

     total cpu time spent up to now is      142.7 secs

     total energy              =     -67.90339408 Ry
     estimated scf accuracy    <       0.00000132 Ry

     iteration # 12     ecut=   200.00 Ry     beta= 0.20
     Davidson diagonalization with overlap
     ethr =  1.65E-08,  avg # of iterations =  2.1

     total cpu time spent up to now is      155.9 secs

     total energy              =     -67.90339436 Ry
     estimated scf accuracy    <       0.00000003 Ry

     iteration # 13     ecut=   200.00 Ry     beta= 0.20
     Davidson diagonalization with overlap
     ethr =  3.37E-10,  avg # of iterations =  4.0

     total cpu time spent up to now is      172.1 secs

     total energy              =     -67.90339438 Ry
     estimated scf accuracy    <       0.00000003 Ry

     iteration # 14     ecut=   200.00 Ry     beta= 0.20
     Davidson diagonalization with overlap
     ethr =  3.37E-10,  avg # of iterations =  1.0

     total cpu time spent up to now is      182.2 secs

     total energy              =     -67.90339436 Ry
     estimated scf accuracy    <       0.00000004 Ry

     iteration # 15     ecut=   200.00 Ry     beta= 0.20
     Davidson diagonalization with overlap
     ethr =  3.37E-10,  avg # of iterations =  1.7

     total cpu time spent up to now is      193.6 secs

     End of self-consistent calculation

     Number of k-points >= 100: set verbosity='high' to print the bands.

     highest occupied level (ev):    10.9187

!    total energy              =     -67.90339436 Ry
     total all-electron energy =      -595.344973 Ry
     estimated scf accuracy    <          9.6E-09 Ry

     The total energy is the sum of the following terms:
     one-electron contribution =       3.32970674 Ry
     hartree contribution      =       4.56034729 Ry
     xc contribution           =      -8.64070420 Ry
     ewald contribution        =     -24.51862769 Ry
     one-center paw contrib.   =     -42.63411650 Ry

     convergence has been achieved in  15 iterations

     Forces acting on atoms (cartesian axes, Ry/au):

     atom    1 type  1   force =     0.00000000    0.00000000   -0.00000000
     atom    2 type  2   force =    -0.00000000   -0.00000000    0.00000000

     Total force =     0.000000     Total SCF correction =     0.000000


     Computing stress (Cartesian axis) and pressure

          total   stress  (Ry/bohr**3)                   (kbar)     P=        6.23
   0.00004235   0.00000000   0.00000000            6.23        0.00        0.00
   0.00000000   0.00004235  -0.00000000            0.00        6.23       -0.00
   0.00000000  -0.00000000   0.00004235            0.00       -0.00        6.23


     Writing all to output data dir ../output/AlN.save/
 
     init_run     :      6.95s CPU      7.12s WALL (       1 calls)
     electrons    :    183.01s CPU    186.31s WALL (       1 calls)
     forces       :      2.05s CPU      2.07s WALL (       1 calls)
     stress       :      6.24s CPU      6.29s WALL (       1 calls)

     Called by init_run:
     wfcinit      :      6.40s CPU      6.54s WALL (       1 calls)
     potinit      :      0.08s CPU      0.08s WALL (       1 calls)
     hinit0       :      0.18s CPU      0.18s WALL (       1 calls)

     Called by electrons:
     c_bands      :    153.01s CPU    155.60s WALL (      15 calls)
     sum_band     :     28.37s CPU     28.89s WALL (      15 calls)
     v_of_rho     :      0.29s CPU      0.29s WALL (      16 calls)
     newd         :      0.36s CPU      0.49s WALL (      16 calls)
     PAW_pot      :      0.74s CPU      0.76s WALL (      16 calls)
     mix_rho      :      0.31s CPU      0.34s WALL (      15 calls)

     Called by c_bands:
     init_us_2    :     12.76s CPU     13.08s WALL (   27423 calls)
     init_us_2:cp :     12.68s CPU     13.01s WALL (   27423 calls)
     cegterg      :    111.22s CPU    113.22s WALL (   12465 calls)

     Called by *egterg:
     cdiaghg      :      1.35s CPU      1.39s WALL (   36973 calls)
     h_psi        :    104.79s CPU    106.60s WALL (   37804 calls)
     s_psi        :      2.74s CPU      2.81s WALL (   37804 calls)
     g_psi        :      0.70s CPU      0.72s WALL (   24508 calls)

     Called by h_psi:
     h_psi:calbec :      3.60s CPU      3.67s WALL (   37804 calls)
     vloc_psi     :     97.72s CPU     99.39s WALL (   37804 calls)
     add_vuspsi   :      2.71s CPU      2.77s WALL (   37804 calls)

     General routines
     calbec       :      5.14s CPU      5.24s WALL (   54424 calls)
     fft          :      0.12s CPU      0.12s WALL (     201 calls)
     ffts         :      0.18s CPU      0.18s WALL (     271 calls)
     fftw         :     98.86s CPU    100.47s WALL (  322440 calls)
 
     Parallel routines
 
     PWSCF        :   3m19.06s CPU   3m25.20s WALL

 
   This run was terminated on:  16:37:23  27Apr2026            

=------------------------------------------------------------------------------=
   JOB DONE.
=------------------------------------------------------------------------------=
