
     Program PWSCF v.7.1 starts on 27Apr2026 at 17:14:14 

     This program is part of the open-source Quantum ESPRESSO suite
     for quantum simulation of materials; please cite
         "P. Giannozzi et al., J. Phys.:Condens. Matter 21 395502 (2009);
         "P. Giannozzi et al., J. Phys.:Condens. Matter 29 465901 (2017);
         "P. Giannozzi et al., J. Chem. Phys. 152 154105 (2020);
          URL http://www.quantum-espresso.org", 
     in publications or presentations arising from this work. More details at
     http://www.quantum-espresso.org/quote

     Parallel version (MPI & OpenMP), running on       4 processor cores
     Number of MPI processes:                 4
     Threads/MPI process:                     1

     MPI processes distributed on     1 nodes
     379553 MiB available memory on the printing compute node when the environment starts
 
     Reading input from AlN_scf.in

     Current dimensions of program PWSCF are:
     Max number of different atomic species (ntypx) = 10
     Max number of k-points (npk) = 150000
     Max angular momentum in pseudopotentials (lmaxx) =  4
     file Al.pbe-n-kjpaw_psl.1.0.0.UPF: wavefunction(s)  3S 3P renormalized
     file N.pbe-n-kjpaw_psl.1.0.0.UPF: wavefunction(s)  2S renormalized
     Message from routine setup:
     using ibrav=0 with symmetry is DISCOURAGED, use correct ibrav instead
 
     K-points division:     npool     =       2
     R & G space division:  proc/nbgrp/npool/nimage =       2
     Subspace diagonalization in iterative solution of the eigenvalue problem:
     a serial algorithm will be used

 
     Parallelization info
     --------------------
     sticks:   dense  smooth     PW     G-vecs:    dense   smooth      PW
     Min        1626    1626    456                61436    61436    9073
     Max        1627    1627    457                61441    61441    9076
     Sum        3253    3253    913               122877   122877   18149
 
     Using Slab Decomposition
 


     bravais-lattice index     =            0
     lattice parameter (alat)  =       5.4385  a.u.
     unit-cell volume          =     113.7417 (a.u.)^3
     number of atoms/cell      =            2
     number of atomic types    =            2
     number of electrons       =         8.00
     number of Kohn-Sham states=            4
     kinetic-energy cutoff     =     400.0000  Ry
     charge density cutoff     =    1600.0000  Ry
     scf convergence threshold =      1.0E-08
     mixing beta               =       0.2000
     number of iterations used =            8  local-TF  mixing
     Exchange-correlation= SLA  PW   PBX  PBC
                           (   1   4   3   4   0   0   0)

     celldm(1)=   5.438489  celldm(2)=   0.000000  celldm(3)=   0.000000
     celldm(4)=   0.000000  celldm(5)=   0.000000  celldm(6)=   0.000000

     crystal axes: (cart. coord. in units of alat)
               a(1) = (  -0.707107   0.000000   0.707107 )  
               a(2) = (   0.000000   0.707107   0.707107 )  
               a(3) = (  -0.707107   0.707107   0.000000 )  

     reciprocal axes: (cart. coord. in units 2 pi/alat)
               b(1) = ( -0.707107 -0.707107  0.707107 )  
               b(2) = (  0.707107  0.707107  0.707107 )  
               b(3) = ( -0.707107  0.707107 -0.707107 )  


     PseudoPot. # 1 for Al read from file:
     ../../pseudo/Al.pbe-n-kjpaw_psl.1.0.0.UPF
     MD5 check sum: 502b6b27b9c6270cab5dd1084b96fa6d
     Pseudo is Projector augmented-wave + core cor, Zval =  3.0
     Generated using &quot;atomic&quot; code by A. Dal Corso  v.6.3
     Shape of augmentation charge: PSQ
     Using radial grid of 1135 points,  6 beta functions with: 
                l(1) =   0
                l(2) =   0
                l(3) =   1
                l(4) =   1
                l(5) =   2
                l(6) =   2
     Q(r) pseudized with 0 coefficients 


     PseudoPot. # 2 for N  read from file:
     ../../pseudo/N.pbe-n-kjpaw_psl.1.0.0.UPF
     MD5 check sum: 14c48229446f9f2d411169a3abcbc3fa
     Pseudo is Projector augmented-wave + core cor, Zval =  5.0
     Generated using &quot;atomic&quot; code by A. Dal Corso  v.6.3
     Shape of augmentation charge: PSQ
     Using radial grid of 1085 points,  4 beta functions with: 
                l(1) =   0
                l(2) =   0
                l(3) =   1
                l(4) =   1
     Q(r) pseudized with 0 coefficients 


     atomic species   valence    mass     pseudopotential
        Al             3.00    26.98200     Al( 1.00)
        N              5.00    14.00700     N ( 1.00)

     48 Sym. Ops., with inversion, found



   Cartesian axes

     site n.     atom                  positions (alat units)
         1           Al  tau(   1) = (   0.0000000   0.0000000   0.0000000  )
         2           N   tau(   2) = (  -0.7071068   0.7071068   0.7071068  )

     number of k points=  1661

     Number of k-points >= 100: set verbosity='high' to print them.

     Dense  grid:   122877 G-vectors     FFT dimensions: (  72,  72,  72)

     Estimated max dynamical RAM per process >     534.31 MB

     Estimated total dynamical RAM >       2.06 GB

     Initial potential from superposition of free atoms

     starting charge       7.9977, renormalised to       8.0000
     Starting wfcs are    8 randomized atomic wfcs
     Checking if some PAW data can be deallocated... 

     total cpu time spent up to now is       25.8 secs

     Self-consistent Calculation

     iteration #  1     ecut=   400.00 Ry     beta= 0.20
     Davidson diagonalization with overlap
     ethr =  1.00E-02,  avg # of iterations =  2.0

     total cpu time spent up to now is       69.7 secs

     total energy              =     -67.95605681 Ry
     estimated scf accuracy    <       0.44580490 Ry

     iteration #  2     ecut=   400.00 Ry     beta= 0.20
     Davidson diagonalization with overlap
     ethr =  5.57E-03,  avg # of iterations =  1.0

     total cpu time spent up to now is      106.3 secs

     total energy              =     -67.83473662 Ry
     estimated scf accuracy    <       0.26213955 Ry

     iteration #  3     ecut=   400.00 Ry     beta= 0.20
     Davidson diagonalization with overlap
     ethr =  3.28E-03,  avg # of iterations =  2.0

     total cpu time spent up to now is      154.4 secs

     total energy              =     -67.90125781 Ry
     estimated scf accuracy    <       0.00735450 Ry

     iteration #  4     ecut=   400.00 Ry     beta= 0.20
     Davidson diagonalization with overlap
     ethr =  9.19E-05,  avg # of iterations =  2.8

     total cpu time spent up to now is      207.0 secs

     total energy              =     -67.90360463 Ry
     estimated scf accuracy    <       0.00406957 Ry

     iteration #  5     ecut=   400.00 Ry     beta= 0.20
     Davidson diagonalization with overlap
     ethr =  5.09E-05,  avg # of iterations =  1.3

     total cpu time spent up to now is      245.5 secs

     total energy              =     -67.90314522 Ry
     estimated scf accuracy    <       0.00155796 Ry

     iteration #  6     ecut=   400.00 Ry     beta= 0.20
     Davidson diagonalization with overlap
     ethr =  1.95E-05,  avg # of iterations =  2.7

     total cpu time spent up to now is      294.0 secs

     total energy              =     -67.90350889 Ry
     estimated scf accuracy    <       0.00013141 Ry

     iteration #  7     ecut=   400.00 Ry     beta= 0.20
     Davidson diagonalization with overlap
     ethr =  1.64E-06,  avg # of iterations =  2.2

     total cpu time spent up to now is      343.3 secs

     total energy              =     -67.90331053 Ry
     estimated scf accuracy    <       0.00040719 Ry

     iteration #  8     ecut=   400.00 Ry     beta= 0.20
     Davidson diagonalization with overlap
     ethr =  1.64E-06,  avg # of iterations =  2.6

     total cpu time spent up to now is      394.0 secs

     total energy              =     -67.90339938 Ry
     estimated scf accuracy    <       0.00000007 Ry

     iteration #  9     ecut=   400.00 Ry     beta= 0.20
     Davidson diagonalization with overlap
     ethr =  9.29E-10,  avg # of iterations =  7.2

     total cpu time spent up to now is      487.1 secs

     total energy              =     -67.90340078 Ry
     estimated scf accuracy    <       0.00000059 Ry

     iteration # 10     ecut=   400.00 Ry     beta= 0.20
     Davidson diagonalization with overlap
     ethr =  9.29E-10,  avg # of iterations =  1.0

     total cpu time spent up to now is      522.9 secs

     total energy              =     -67.90340040 Ry
     estimated scf accuracy    <       0.00000053 Ry

     iteration # 11     ecut=   400.00 Ry     beta= 0.20
     Davidson diagonalization with overlap
     ethr =  9.29E-10,  avg # of iterations =  3.2

     total cpu time spent up to now is      579.1 secs

     total energy              =     -67.90340064 Ry
     estimated scf accuracy    <       0.00000023 Ry

     iteration # 12     ecut=   400.00 Ry     beta= 0.20
     Davidson diagonalization with overlap
     ethr =  9.29E-10,  avg # of iterations =  1.0

     total cpu time spent up to now is      612.1 secs

     total energy              =     -67.90340061 Ry
     estimated scf accuracy    <       0.00000013 Ry

     iteration # 13     ecut=   400.00 Ry     beta= 0.20
     Davidson diagonalization with overlap
     ethr =  9.29E-10,  avg # of iterations =  2.0

     total cpu time spent up to now is      652.7 secs

     total energy              =     -67.90340061 Ry
     estimated scf accuracy    <       0.00000003 Ry

     iteration # 14     ecut=   400.00 Ry     beta= 0.20
     Davidson diagonalization with overlap
     ethr =  3.57E-10,  avg # of iterations =  1.2

     total cpu time spent up to now is      686.9 secs

     End of self-consistent calculation

     Number of k-points >= 100: set verbosity='high' to print the bands.

     highest occupied level (ev):    10.9192

!    total energy              =     -67.90340061 Ry
     total all-electron energy =      -595.344979 Ry
     estimated scf accuracy    <          5.8E-09 Ry

     The total energy is the sum of the following terms:
     one-electron contribution =       3.33006768 Ry
     hartree contribution      =       4.55986780 Ry
     xc contribution           =      -8.64058062 Ry
     ewald contribution        =     -24.51862769 Ry
     one-center paw contrib.   =     -42.63412778 Ry

     convergence has been achieved in  14 iterations

     Forces acting on atoms (cartesian axes, Ry/au):

     atom    1 type  1   force =     0.00000000    0.00000000    0.00000000
     atom    2 type  2   force =     0.00000000    0.00000000    0.00000000

     Total force =     0.000000     Total SCF correction =     0.000000


     Computing stress (Cartesian axis) and pressure

          total   stress  (Ry/bohr**3)                   (kbar)     P=        5.86
   0.00003980   0.00000000   0.00000000            5.86        0.00        0.00
   0.00000000   0.00003980  -0.00000000            0.00        5.86       -0.00
   0.00000000  -0.00000000   0.00003980            0.00       -0.00        5.86


     Writing all to output data dir ../output/AlN.save/
 
     init_run     :     24.82s CPU     25.39s WALL (       1 calls)
     electrons    :    653.92s CPU    661.28s WALL (       1 calls)
     forces       :      6.31s CPU      6.38s WALL (       1 calls)
     stress       :     20.23s CPU     20.40s WALL (       1 calls)

     Called by init_run:
     wfcinit      :     23.70s CPU     24.10s WALL (       1 calls)
     potinit      :      0.14s CPU      0.18s WALL (       1 calls)
     hinit0       :      0.28s CPU      0.37s WALL (       1 calls)

     Called by electrons:
     c_bands      :    554.13s CPU    559.58s WALL (      14 calls)
     sum_band     :     96.00s CPU     97.19s WALL (      14 calls)
     v_of_rho     :      0.98s CPU      1.11s WALL (      15 calls)
     newd         :      1.06s CPU      1.40s WALL (      15 calls)
     PAW_pot      :      0.82s CPU      0.89s WALL (      15 calls)
     mix_rho      :      1.07s CPU      1.14s WALL (      14 calls)

     Called by c_bands:
     init_us_2    :     39.55s CPU     40.22s WALL (   25761 calls)
     init_us_2:cp :     39.44s CPU     40.12s WALL (   25761 calls)
     cegterg      :    434.33s CPU    438.80s WALL (   11634 calls)

     Called by *egterg:
     cdiaghg      :      2.64s CPU      2.69s WALL (   38059 calls)
     h_psi        :    405.92s CPU    409.91s WALL (   38890 calls)
     s_psi        :     12.41s CPU     12.59s WALL (   38890 calls)
     g_psi        :      2.76s CPU      2.81s WALL (   26425 calls)

     Called by h_psi:
     h_psi:calbec :     17.91s CPU     18.13s WALL (   38890 calls)
     vloc_psi     :    368.74s CPU    372.25s WALL (   38890 calls)
     add_vuspsi   :     16.57s CPU     16.81s WALL (   38890 calls)

     General routines
     calbec       :     24.59s CPU     24.92s WALL (   54679 calls)
     fft          :      0.45s CPU      0.54s WALL (     190 calls)
     ffts         :      0.53s CPU      0.53s WALL (     249 calls)
     fftw         :    343.29s CPU    346.56s WALL (  329998 calls)
 
     Parallel routines
 
     PWSCF        :  11m46.49s CPU  12m 2.43s WALL

 
   This run was terminated on:  17:26:16  27Apr2026            

=------------------------------------------------------------------------------=
   JOB DONE.
=------------------------------------------------------------------------------=
