
     Program PWSCF v.7.1 starts on 27Apr2026 at 16:30:56 

     This program is part of the open-source Quantum ESPRESSO suite
     for quantum simulation of materials; please cite
         "P. Giannozzi et al., J. Phys.:Condens. Matter 21 395502 (2009);
         "P. Giannozzi et al., J. Phys.:Condens. Matter 29 465901 (2017);
         "P. Giannozzi et al., J. Chem. Phys. 152 154105 (2020);
          URL http://www.quantum-espresso.org", 
     in publications or presentations arising from this work. More details at
     http://www.quantum-espresso.org/quote

     Parallel version (MPI & OpenMP), running on       4 processor cores
     Number of MPI processes:                 4
     Threads/MPI process:                     1

     MPI processes distributed on     1 nodes
     91923 MiB available memory on the printing compute node when the environment starts
 
     Reading input from AlN_scf.in

     Current dimensions of program PWSCF are:
     Max number of different atomic species (ntypx) = 10
     Max number of k-points (npk) = 150000
     Max angular momentum in pseudopotentials (lmaxx) =  4
     file Al.pbe-n-kjpaw_psl.1.0.0.UPF: wavefunction(s)  3S 3P renormalized
     file N.pbe-n-kjpaw_psl.1.0.0.UPF: wavefunction(s)  2S renormalized
     Message from routine setup:
     using ibrav=0 with symmetry is DISCOURAGED, use correct ibrav instead
 
     K-points division:     npool     =       2
     R & G space division:  proc/nbgrp/npool/nimage =       2
     Subspace diagonalization in iterative solution of the eigenvalue problem:
     a serial algorithm will be used

 
     Parallelization info
     --------------------
     sticks:   dense  smooth     PW     G-vecs:    dense   smooth      PW
     Min         819     819    237                21799    21799    3426
     Max         820     820    238                21800    21800    3429
     Sum        1639    1639    475                43599    43599    6855
 
     Using Slab Decomposition
 


     bravais-lattice index     =            0
     lattice parameter (alat)  =       5.4385  a.u.
     unit-cell volume          =     113.7417 (a.u.)^3
     number of atoms/cell      =            2
     number of atomic types    =            2
     number of electrons       =         8.00
     number of Kohn-Sham states=            4
     kinetic-energy cutoff     =     200.0000  Ry
     charge density cutoff     =     800.0000  Ry
     scf convergence threshold =      1.0E-08
     mixing beta               =       0.2000
     number of iterations used =            8  local-TF  mixing
     Exchange-correlation= SLA  PW   PBX  PBC
                           (   1   4   3   4   0   0   0)

     celldm(1)=   5.438489  celldm(2)=   0.000000  celldm(3)=   0.000000
     celldm(4)=   0.000000  celldm(5)=   0.000000  celldm(6)=   0.000000

     crystal axes: (cart. coord. in units of alat)
               a(1) = (  -0.707107   0.000000   0.707107 )  
               a(2) = (   0.000000   0.707107   0.707107 )  
               a(3) = (  -0.707107   0.707107   0.000000 )  

     reciprocal axes: (cart. coord. in units 2 pi/alat)
               b(1) = ( -0.707107 -0.707107  0.707107 )  
               b(2) = (  0.707107  0.707107  0.707107 )  
               b(3) = ( -0.707107  0.707107 -0.707107 )  


     PseudoPot. # 1 for Al read from file:
     ../../pseudo/Al.pbe-n-kjpaw_psl.1.0.0.UPF
     MD5 check sum: 502b6b27b9c6270cab5dd1084b96fa6d
     Pseudo is Projector augmented-wave + core cor, Zval =  3.0
     Generated using &quot;atomic&quot; code by A. Dal Corso  v.6.3
     Shape of augmentation charge: PSQ
     Using radial grid of 1135 points,  6 beta functions with: 
                l(1) =   0
                l(2) =   0
                l(3) =   1
                l(4) =   1
                l(5) =   2
                l(6) =   2
     Q(r) pseudized with 0 coefficients 


     PseudoPot. # 2 for N  read from file:
     ../../pseudo/N.pbe-n-kjpaw_psl.1.0.0.UPF
     MD5 check sum: 14c48229446f9f2d411169a3abcbc3fa
     Pseudo is Projector augmented-wave + core cor, Zval =  5.0
     Generated using &quot;atomic&quot; code by A. Dal Corso  v.6.3
     Shape of augmentation charge: PSQ
     Using radial grid of 1085 points,  4 beta functions with: 
                l(1) =   0
                l(2) =   0
                l(3) =   1
                l(4) =   1
     Q(r) pseudized with 0 coefficients 


     atomic species   valence    mass     pseudopotential
        Al             3.00    26.98200     Al( 1.00)
        N              5.00    14.00700     N ( 1.00)

     48 Sym. Ops., with inversion, found



   Cartesian axes

     site n.     atom                  positions (alat units)
         1           Al  tau(   1) = (   0.0000000   0.0000000   0.0000000  )
         2           N   tau(   2) = (  -0.7071068   0.7071068   0.7071068  )

     number of k points=  1240

     Number of k-points >= 100: set verbosity='high' to print them.

     Dense  grid:    43599 G-vectors     FFT dimensions: (  50,  50,  50)

     Estimated max dynamical RAM per process >     156.09 MB

     Estimated total dynamical RAM >     613.73 MB

     Initial potential from superposition of free atoms

     starting charge       7.9977, renormalised to       8.0000
     Starting wfcs are    8 randomized atomic wfcs
     Checking if some PAW data can be deallocated... 

     total cpu time spent up to now is        5.6 secs

     Self-consistent Calculation

     iteration #  1     ecut=   200.00 Ry     beta= 0.20
     Davidson diagonalization with overlap
     ethr =  1.00E-02,  avg # of iterations =  1.9

     total cpu time spent up to now is       14.6 secs

     total energy              =     -67.95668165 Ry
     estimated scf accuracy    <       0.44290958 Ry

     iteration #  2     ecut=   200.00 Ry     beta= 0.20
     Davidson diagonalization with overlap
     ethr =  5.54E-03,  avg # of iterations =  1.0

     total cpu time spent up to now is       22.1 secs

     total energy              =     -67.83415241 Ry
     estimated scf accuracy    <       0.26193746 Ry

     iteration #  3     ecut=   200.00 Ry     beta= 0.20
     Davidson diagonalization with overlap
     ethr =  3.27E-03,  avg # of iterations =  2.0

     total cpu time spent up to now is       31.9 secs

     total energy              =     -67.90130152 Ry
     estimated scf accuracy    <       0.00759455 Ry

     iteration #  4     ecut=   200.00 Ry     beta= 0.20
     Davidson diagonalization with overlap
     ethr =  9.49E-05,  avg # of iterations =  2.5

     total cpu time spent up to now is       42.3 secs

     total energy              =     -67.90355388 Ry
     estimated scf accuracy    <       0.00555765 Ry

     iteration #  5     ecut=   200.00 Ry     beta= 0.20
     Davidson diagonalization with overlap
     ethr =  6.95E-05,  avg # of iterations =  1.3

     total cpu time spent up to now is       50.2 secs

     total energy              =     -67.90322064 Ry
     estimated scf accuracy    <       0.00190603 Ry

     iteration #  6     ecut=   200.00 Ry     beta= 0.20
     Davidson diagonalization with overlap
     ethr =  2.38E-05,  avg # of iterations =  2.4

     total cpu time spent up to now is       59.7 secs

     total energy              =     -67.90324268 Ry
     estimated scf accuracy    <       0.00036763 Ry

     iteration #  7     ecut=   200.00 Ry     beta= 0.20
     Davidson diagonalization with overlap
     ethr =  4.60E-06,  avg # of iterations =  3.0

     total cpu time spent up to now is       70.9 secs

     total energy              =     -67.90339080 Ry
     estimated scf accuracy    <       0.00000559 Ry

     iteration #  8     ecut=   200.00 Ry     beta= 0.20
     Davidson diagonalization with overlap
     ethr =  6.99E-08,  avg # of iterations =  3.4

     total cpu time spent up to now is       83.0 secs

     total energy              =     -67.90339083 Ry
     estimated scf accuracy    <       0.00003150 Ry

     iteration #  9     ecut=   200.00 Ry     beta= 0.20
     Davidson diagonalization with overlap
     ethr =  6.99E-08,  avg # of iterations =  2.3

     total cpu time spent up to now is       93.3 secs

     total energy              =     -67.90339456 Ry
     estimated scf accuracy    <       0.00000175 Ry

     iteration # 10     ecut=   200.00 Ry     beta= 0.20
     Davidson diagonalization with overlap
     ethr =  2.19E-08,  avg # of iterations =  1.3

     total cpu time spent up to now is      101.2 secs

     total energy              =     -67.90339462 Ry
     estimated scf accuracy    <       0.00000119 Ry

     iteration # 11     ecut=   200.00 Ry     beta= 0.20
     Davidson diagonalization with overlap
     ethr =  1.49E-08,  avg # of iterations =  1.0

     total cpu time spent up to now is      108.8 secs

     total energy              =     -67.90339428 Ry
     estimated scf accuracy    <       0.00000104 Ry

     iteration # 12     ecut=   200.00 Ry     beta= 0.20
     Davidson diagonalization with overlap
     ethr =  1.30E-08,  avg # of iterations =  1.9

     total cpu time spent up to now is      117.6 secs

     total energy              =     -67.90339436 Ry
     estimated scf accuracy    <       0.00000015 Ry

     iteration # 13     ecut=   200.00 Ry     beta= 0.20
     Davidson diagonalization with overlap
     ethr =  1.90E-09,  avg # of iterations =  2.3

     total cpu time spent up to now is      126.6 secs

     total energy              =     -67.90339436 Ry
     estimated scf accuracy    <       0.00000006 Ry

     iteration # 14     ecut=   200.00 Ry     beta= 0.20
     Davidson diagonalization with overlap
     ethr =  7.18E-10,  avg # of iterations =  1.9

     total cpu time spent up to now is      135.5 secs

     total energy              =     -67.90339436 Ry
     estimated scf accuracy    <       0.00000001 Ry

     iteration # 15     ecut=   200.00 Ry     beta= 0.20
     Davidson diagonalization with overlap
     ethr =  1.63E-10,  avg # of iterations =  3.0

     total cpu time spent up to now is      146.4 secs

     End of self-consistent calculation

     Number of k-points >= 100: set verbosity='high' to print the bands.

     highest occupied level (ev):    10.9190

!    total energy              =     -67.90339436 Ry
     total all-electron energy =      -595.344973 Ry
     estimated scf accuracy    <          6.8E-11 Ry

     The total energy is the sum of the following terms:
     one-electron contribution =       3.32991795 Ry
     hartree contribution      =       4.56006770 Ry
     xc contribution           =      -8.64063205 Ry
     ewald contribution        =     -24.51862769 Ry
     one-center paw contrib.   =     -42.63412028 Ry

     convergence has been achieved in  15 iterations

     Forces acting on atoms (cartesian axes, Ry/au):

     atom    1 type  1   force =     0.00000000    0.00000000   -0.00000000
     atom    2 type  2   force =     0.00000000    0.00000000    0.00000000

     Total force =     0.000000     Total SCF correction =     0.000000


     Computing stress (Cartesian axis) and pressure

          total   stress  (Ry/bohr**3)                   (kbar)     P=        6.00
   0.00004082  -0.00000000   0.00000000            6.00       -0.00        0.00
   0.00000000   0.00004082  -0.00000000            0.00        6.00       -0.00
   0.00000000  -0.00000000   0.00004082            0.00       -0.00        6.00


     Writing all to output data dir ../output/AlN.save/
 
     init_run     :      5.36s CPU      5.50s WALL (       1 calls)
     electrons    :    138.18s CPU    140.73s WALL (       1 calls)
     forces       :      1.55s CPU      1.57s WALL (       1 calls)
     stress       :      4.78s CPU      4.82s WALL (       1 calls)

     Called by init_run:
     wfcinit      :      4.90s CPU      5.01s WALL (       1 calls)
     potinit      :      0.07s CPU      0.08s WALL (       1 calls)
     hinit0       :      0.18s CPU      0.19s WALL (       1 calls)

     Called by electrons:
     c_bands      :    115.24s CPU    117.20s WALL (      15 calls)
     sum_band     :     21.27s CPU     21.68s WALL (      15 calls)
     v_of_rho     :      0.29s CPU      0.30s WALL (      16 calls)
     newd         :      0.39s CPU      0.50s WALL (      16 calls)
     PAW_pot      :      0.76s CPU      0.77s WALL (      16 calls)
     mix_rho      :      0.32s CPU      0.35s WALL (      15 calls)

     Called by c_bands:
     init_us_2    :      9.53s CPU      9.77s WALL (   20460 calls)
     init_us_2:cp :      9.47s CPU      9.71s WALL (   20460 calls)
     cegterg      :     84.85s CPU     86.33s WALL (    9300 calls)

     Called by *egterg:
     cdiaghg      :      1.07s CPU      1.10s WALL (   28530 calls)
     h_psi        :     79.77s CPU     81.12s WALL (   29150 calls)
     s_psi        :      2.10s CPU      2.15s WALL (   29150 calls)
     g_psi        :      0.53s CPU      0.55s WALL (   19230 calls)

     Called by h_psi:
     h_psi:calbec :      2.78s CPU      2.82s WALL (   29150 calls)
     vloc_psi     :     74.31s CPU     75.56s WALL (   29150 calls)
     add_vuspsi   :      2.12s CPU      2.17s WALL (   29150 calls)

     General routines
     calbec       :      3.97s CPU      4.05s WALL (   41550 calls)
     fft          :      0.12s CPU      0.13s WALL (     201 calls)
     ffts         :      0.16s CPU      0.16s WALL (     273 calls)
     fftw         :     75.17s CPU     76.39s WALL (  243906 calls)
 
     Parallel routines
 
     PWSCF        :   2m30.39s CPU   2m34.92s WALL

 
   This run was terminated on:  16:33:31  27Apr2026            

=------------------------------------------------------------------------------=
   JOB DONE.
=------------------------------------------------------------------------------=
