
     Program PWSCF v.7.1 starts on 27Apr2026 at 16:29:55 

     This program is part of the open-source Quantum ESPRESSO suite
     for quantum simulation of materials; please cite
         "P. Giannozzi et al., J. Phys.:Condens. Matter 21 395502 (2009);
         "P. Giannozzi et al., J. Phys.:Condens. Matter 29 465901 (2017);
         "P. Giannozzi et al., J. Chem. Phys. 152 154105 (2020);
          URL http://www.quantum-espresso.org", 
     in publications or presentations arising from this work. More details at
     http://www.quantum-espresso.org/quote

     Parallel version (MPI & OpenMP), running on       4 processor cores
     Number of MPI processes:                 4
     Threads/MPI process:                     1

     MPI processes distributed on     1 nodes
     91836 MiB available memory on the printing compute node when the environment starts
 
     Reading input from AlN_scf.in

     Current dimensions of program PWSCF are:
     Max number of different atomic species (ntypx) = 10
     Max number of k-points (npk) = 150000
     Max angular momentum in pseudopotentials (lmaxx) =  4
     file Al.pbe-n-kjpaw_psl.1.0.0.UPF: wavefunction(s)  3S 3P renormalized
     file N.pbe-n-kjpaw_psl.1.0.0.UPF: wavefunction(s)  2S renormalized
     Message from routine setup:
     using ibrav=0 with symmetry is DISCOURAGED, use correct ibrav instead
 
     K-points division:     npool     =       2
     R & G space division:  proc/nbgrp/npool/nimage =       2
     Subspace diagonalization in iterative solution of the eigenvalue problem:
     a serial algorithm will be used

 
     Parallelization info
     --------------------
     sticks:   dense  smooth     PW     G-vecs:    dense   smooth      PW
     Min         819     819    237                21799    21799    3426
     Max         820     820    238                21800    21800    3429
     Sum        1639    1639    475                43599    43599    6855
 
     Using Slab Decomposition
 


     bravais-lattice index     =            0
     lattice parameter (alat)  =       5.4385  a.u.
     unit-cell volume          =     113.7417 (a.u.)^3
     number of atoms/cell      =            2
     number of atomic types    =            2
     number of electrons       =         8.00
     number of Kohn-Sham states=            4
     kinetic-energy cutoff     =     200.0000  Ry
     charge density cutoff     =     800.0000  Ry
     scf convergence threshold =      1.0E-08
     mixing beta               =       0.2000
     number of iterations used =            8  local-TF  mixing
     Exchange-correlation= SLA  PW   PBX  PBC
                           (   1   4   3   4   0   0   0)

     celldm(1)=   5.438489  celldm(2)=   0.000000  celldm(3)=   0.000000
     celldm(4)=   0.000000  celldm(5)=   0.000000  celldm(6)=   0.000000

     crystal axes: (cart. coord. in units of alat)
               a(1) = (  -0.707107   0.000000   0.707107 )  
               a(2) = (   0.000000   0.707107   0.707107 )  
               a(3) = (  -0.707107   0.707107   0.000000 )  

     reciprocal axes: (cart. coord. in units 2 pi/alat)
               b(1) = ( -0.707107 -0.707107  0.707107 )  
               b(2) = (  0.707107  0.707107  0.707107 )  
               b(3) = ( -0.707107  0.707107 -0.707107 )  


     PseudoPot. # 1 for Al read from file:
     ../../pseudo/Al.pbe-n-kjpaw_psl.1.0.0.UPF
     MD5 check sum: 502b6b27b9c6270cab5dd1084b96fa6d
     Pseudo is Projector augmented-wave + core cor, Zval =  3.0
     Generated using &quot;atomic&quot; code by A. Dal Corso  v.6.3
     Shape of augmentation charge: PSQ
     Using radial grid of 1135 points,  6 beta functions with: 
                l(1) =   0
                l(2) =   0
                l(3) =   1
                l(4) =   1
                l(5) =   2
                l(6) =   2
     Q(r) pseudized with 0 coefficients 


     PseudoPot. # 2 for N  read from file:
     ../../pseudo/N.pbe-n-kjpaw_psl.1.0.0.UPF
     MD5 check sum: 14c48229446f9f2d411169a3abcbc3fa
     Pseudo is Projector augmented-wave + core cor, Zval =  5.0
     Generated using &quot;atomic&quot; code by A. Dal Corso  v.6.3
     Shape of augmentation charge: PSQ
     Using radial grid of 1085 points,  4 beta functions with: 
                l(1) =   0
                l(2) =   0
                l(3) =   1
                l(4) =   1
     Q(r) pseudized with 0 coefficients 


     atomic species   valence    mass     pseudopotential
        Al             3.00    26.98200     Al( 1.00)
        N              5.00    14.00700     N ( 1.00)

     48 Sym. Ops., with inversion, found



   Cartesian axes

     site n.     atom                  positions (alat units)
         1           Al  tau(   1) = (   0.0000000   0.0000000   0.0000000  )
         2           N   tau(   2) = (  -0.7071068   0.7071068   0.7071068  )

     number of k points=   413

     Number of k-points >= 100: set verbosity='high' to print them.

     Dense  grid:    43599 G-vectors     FFT dimensions: (  50,  50,  50)

     Estimated max dynamical RAM per process >      87.63 MB

     Estimated total dynamical RAM >     339.88 MB

     Initial potential from superposition of free atoms

     starting charge       7.9977, renormalised to       8.0000
     Starting wfcs are    8 randomized atomic wfcs
     Checking if some PAW data can be deallocated... 

     total cpu time spent up to now is        2.4 secs

     Self-consistent Calculation

     iteration #  1     ecut=   200.00 Ry     beta= 0.20
     Davidson diagonalization with overlap
     ethr =  1.00E-02,  avg # of iterations =  1.9

     total cpu time spent up to now is        5.8 secs

     total energy              =     -67.95675472 Ry
     estimated scf accuracy    <       0.44264793 Ry

     iteration #  2     ecut=   200.00 Ry     beta= 0.20
     Davidson diagonalization with overlap
     ethr =  5.53E-03,  avg # of iterations =  1.0

     total cpu time spent up to now is        8.6 secs

     total energy              =     -67.83418011 Ry
     estimated scf accuracy    <       0.26187874 Ry

     iteration #  3     ecut=   200.00 Ry     beta= 0.20
     Davidson diagonalization with overlap
     ethr =  3.27E-03,  avg # of iterations =  2.0

     total cpu time spent up to now is       12.2 secs

     total energy              =     -67.90136877 Ry
     estimated scf accuracy    <       0.00765012 Ry

     iteration #  4     ecut=   200.00 Ry     beta= 0.20
     Davidson diagonalization with overlap
     ethr =  9.56E-05,  avg # of iterations =  2.5

     total cpu time spent up to now is       16.0 secs

     total energy              =     -67.90352922 Ry
     estimated scf accuracy    <       0.00598937 Ry

     iteration #  5     ecut=   200.00 Ry     beta= 0.20
     Davidson diagonalization with overlap
     ethr =  7.49E-05,  avg # of iterations =  1.3

     total cpu time spent up to now is       19.0 secs

     total energy              =     -67.90328696 Ry
     estimated scf accuracy    <       0.00194623 Ry

     iteration #  6     ecut=   200.00 Ry     beta= 0.20
     Davidson diagonalization with overlap
     ethr =  2.43E-05,  avg # of iterations =  2.2

     total cpu time spent up to now is       22.3 secs

     total energy              =     -67.90310879 Ry
     estimated scf accuracy    <       0.00050622 Ry

     iteration #  7     ecut=   200.00 Ry     beta= 0.20
     Davidson diagonalization with overlap
     ethr =  6.33E-06,  avg # of iterations =  3.2

     total cpu time spent up to now is       26.5 secs

     total energy              =     -67.90332421 Ry
     estimated scf accuracy    <       0.00020626 Ry

     iteration #  8     ecut=   200.00 Ry     beta= 0.20
     Davidson diagonalization with overlap
     ethr =  2.58E-06,  avg # of iterations =  2.0

     total cpu time spent up to now is       30.2 secs

     total energy              =     -67.90338878 Ry
     estimated scf accuracy    <       0.00003812 Ry

     iteration #  9     ecut=   200.00 Ry     beta= 0.20
     Davidson diagonalization with overlap
     ethr =  4.76E-07,  avg # of iterations =  2.0

     total cpu time spent up to now is       33.8 secs

     total energy              =     -67.90339502 Ry
     estimated scf accuracy    <       0.00000098 Ry

     iteration # 10     ecut=   200.00 Ry     beta= 0.20
     Davidson diagonalization with overlap
     ethr =  1.23E-08,  avg # of iterations =  2.2

     total cpu time spent up to now is       37.6 secs

     total energy              =     -67.90339508 Ry
     estimated scf accuracy    <       0.00000272 Ry

     iteration # 11     ecut=   200.00 Ry     beta= 0.20
     Davidson diagonalization with overlap
     ethr =  1.23E-08,  avg # of iterations =  1.0

     total cpu time spent up to now is       40.4 secs

     total energy              =     -67.90339414 Ry
     estimated scf accuracy    <       0.00000237 Ry

     iteration # 12     ecut=   200.00 Ry     beta= 0.20
     Davidson diagonalization with overlap
     ethr =  1.23E-08,  avg # of iterations =  2.1

     total cpu time spent up to now is       44.2 secs

     total energy              =     -67.90339432 Ry
     estimated scf accuracy    <       0.00000024 Ry

     iteration # 13     ecut=   200.00 Ry     beta= 0.20
     Davidson diagonalization with overlap
     ethr =  2.99E-09,  avg # of iterations =  2.3

     total cpu time spent up to now is       47.9 secs

     total energy              =     -67.90339437 Ry
     estimated scf accuracy    <       0.00000001 Ry

     iteration # 14     ecut=   200.00 Ry     beta= 0.20
     Davidson diagonalization with overlap
     ethr =  1.59E-10,  avg # of iterations =  2.7

     total cpu time spent up to now is       51.6 secs

     total energy              =     -67.90339436 Ry
     estimated scf accuracy    <       0.00000001 Ry

     iteration # 15     ecut=   200.00 Ry     beta= 0.20
     Davidson diagonalization with overlap
     ethr =  1.30E-10,  avg # of iterations =  1.1

     total cpu time spent up to now is       54.5 secs

     End of self-consistent calculation

     Number of k-points >= 100: set verbosity='high' to print the bands.

     highest occupied level (ev):    10.9187

!    total energy              =     -67.90339436 Ry
     total all-electron energy =      -595.344973 Ry
     estimated scf accuracy    <          4.9E-09 Ry

     The total energy is the sum of the following terms:
     one-electron contribution =       3.32976606 Ry
     hartree contribution      =       4.56026810 Ry
     xc contribution           =      -8.64068391 Ry
     ewald contribution        =     -24.51862769 Ry
     one-center paw contrib.   =     -42.63411693 Ry

     convergence has been achieved in  15 iterations

     Forces acting on atoms (cartesian axes, Ry/au):

     atom    1 type  1   force =     0.00000000    0.00000000   -0.00000000
     atom    2 type  2   force =    -0.00000000   -0.00000000    0.00000000

     Total force =     0.000000     Total SCF correction =     0.000000


     Computing stress (Cartesian axis) and pressure

          total   stress  (Ry/bohr**3)                   (kbar)     P=        6.17
   0.00004196  -0.00000000  -0.00000000            6.17       -0.00       -0.00
  -0.00000000   0.00004196   0.00000000           -0.00        6.17        0.00
  -0.00000000   0.00000000   0.00004196           -0.00        0.00        6.17


     Writing all to output data dir ../output/AlN.save/
 
     init_run     :      2.18s CPU      2.26s WALL (       1 calls)
     electrons    :     51.01s CPU     52.10s WALL (       1 calls)
     forces       :      0.74s CPU      0.75s WALL (       1 calls)
     stress       :      2.06s CPU      2.10s WALL (       1 calls)

     Called by init_run:
     wfcinit      :      1.81s CPU      1.86s WALL (       1 calls)
     potinit      :      0.09s CPU      0.10s WALL (       1 calls)
     hinit0       :      0.19s CPU      0.19s WALL (       1 calls)

     Called by electrons:
     c_bands      :     41.26s CPU     41.95s WALL (      15 calls)
     sum_band     :      8.00s CPU      8.25s WALL (      15 calls)
     v_of_rho     :      0.30s CPU      0.31s WALL (      16 calls)
     newd         :      0.40s CPU      0.51s WALL (      16 calls)
     PAW_pot      :      0.79s CPU      0.80s WALL (      16 calls)
     mix_rho      :      0.34s CPU      0.36s WALL (      15 calls)

     Called by c_bands:
     init_us_2    :      3.51s CPU      3.61s WALL (    6831 calls)
     init_us_2:cp :      3.48s CPU      3.59s WALL (    6831 calls)
     cegterg      :     30.92s CPU     31.42s WALL (    3105 calls)

     Called by *egterg:
     cdiaghg      :      0.36s CPU      0.37s WALL (    9124 calls)
     h_psi        :     29.22s CPU     29.68s WALL (    9331 calls)
     s_psi        :      0.72s CPU      0.74s WALL (    9331 calls)
     g_psi        :      0.20s CPU      0.20s WALL (    6019 calls)

     Called by h_psi:
     h_psi:calbec :      0.97s CPU      0.98s WALL (    9331 calls)
     vloc_psi     :     27.32s CPU     27.76s WALL (    9331 calls)
     add_vuspsi   :      0.73s CPU      0.75s WALL (    9331 calls)

     General routines
     calbec       :      1.44s CPU      1.47s WALL (   13471 calls)
     fft          :      0.13s CPU      0.14s WALL (     201 calls)
     ffts         :      0.19s CPU      0.19s WALL (     271 calls)
     fftw         :     27.82s CPU     28.25s WALL (   81406 calls)
 
     Parallel routines
 
     PWSCF        :     56.41s CPU     58.20s WALL

 
   This run was terminated on:  16:30:53  27Apr2026            

=------------------------------------------------------------------------------=
   JOB DONE.
=------------------------------------------------------------------------------=
