
     Program PWSCF v.7.1 starts on 27Apr2026 at 16:24:54 

     This program is part of the open-source Quantum ESPRESSO suite
     for quantum simulation of materials; please cite
         "P. Giannozzi et al., J. Phys.:Condens. Matter 21 395502 (2009);
         "P. Giannozzi et al., J. Phys.:Condens. Matter 29 465901 (2017);
         "P. Giannozzi et al., J. Chem. Phys. 152 154105 (2020);
          URL http://www.quantum-espresso.org", 
     in publications or presentations arising from this work. More details at
     http://www.quantum-espresso.org/quote

     Parallel version (MPI & OpenMP), running on       4 processor cores
     Number of MPI processes:                 4
     Threads/MPI process:                     1

     MPI processes distributed on     1 nodes
     92076 MiB available memory on the printing compute node when the environment starts
 
     Reading input from AlN_scf.in

     Current dimensions of program PWSCF are:
     Max number of different atomic species (ntypx) = 10
     Max number of k-points (npk) = 150000
     Max angular momentum in pseudopotentials (lmaxx) =  4
     file Al.pbe-n-kjpaw_psl.1.0.0.UPF: wavefunction(s)  3S 3P renormalized
     file N.pbe-n-kjpaw_psl.1.0.0.UPF: wavefunction(s)  2S renormalized
     Message from routine setup:
     using ibrav=0 with symmetry is DISCOURAGED, use correct ibrav instead
 
     K-points division:     npool     =       2
     R & G space division:  proc/nbgrp/npool/nimage =       2
     Subspace diagonalization in iterative solution of the eigenvalue problem:
     a serial algorithm will be used

 
     Parallelization info
     --------------------
     sticks:   dense  smooth     PW     G-vecs:    dense   smooth      PW
     Min         819     819    231                21799    21799    3283
     Max         820     820    232                21800    21800    3284
     Sum        1639    1639    463                43599    43599    6567
 
     Using Slab Decomposition
 


     bravais-lattice index     =            0
     lattice parameter (alat)  =       5.4385  a.u.
     unit-cell volume          =     113.7417 (a.u.)^3
     number of atoms/cell      =            2
     number of atomic types    =            2
     number of electrons       =         8.00
     number of Kohn-Sham states=            4
     kinetic-energy cutoff     =     200.0000  Ry
     charge density cutoff     =     800.0000  Ry
     scf convergence threshold =      1.0E-08
     mixing beta               =       0.2000
     number of iterations used =            8  local-TF  mixing
     Exchange-correlation= SLA  PW   PBX  PBC
                           (   1   4   3   4   0   0   0)

     celldm(1)=   5.438489  celldm(2)=   0.000000  celldm(3)=   0.000000
     celldm(4)=   0.000000  celldm(5)=   0.000000  celldm(6)=   0.000000

     crystal axes: (cart. coord. in units of alat)
               a(1) = (  -0.707107   0.000000   0.707107 )  
               a(2) = (   0.000000   0.707107   0.707107 )  
               a(3) = (  -0.707107   0.707107   0.000000 )  

     reciprocal axes: (cart. coord. in units 2 pi/alat)
               b(1) = ( -0.707107 -0.707107  0.707107 )  
               b(2) = (  0.707107  0.707107  0.707107 )  
               b(3) = ( -0.707107  0.707107 -0.707107 )  


     PseudoPot. # 1 for Al read from file:
     ../../pseudo/Al.pbe-n-kjpaw_psl.1.0.0.UPF
     MD5 check sum: 502b6b27b9c6270cab5dd1084b96fa6d
     Pseudo is Projector augmented-wave + core cor, Zval =  3.0
     Generated using &quot;atomic&quot; code by A. Dal Corso  v.6.3
     Shape of augmentation charge: PSQ
     Using radial grid of 1135 points,  6 beta functions with: 
                l(1) =   0
                l(2) =   0
                l(3) =   1
                l(4) =   1
                l(5) =   2
                l(6) =   2
     Q(r) pseudized with 0 coefficients 


     PseudoPot. # 2 for N  read from file:
     ../../pseudo/N.pbe-n-kjpaw_psl.1.0.0.UPF
     MD5 check sum: 14c48229446f9f2d411169a3abcbc3fa
     Pseudo is Projector augmented-wave + core cor, Zval =  5.0
     Generated using &quot;atomic&quot; code by A. Dal Corso  v.6.3
     Shape of augmentation charge: PSQ
     Using radial grid of 1085 points,  4 beta functions with: 
                l(1) =   0
                l(2) =   0
                l(3) =   1
                l(4) =   1
     Q(r) pseudized with 0 coefficients 


     atomic species   valence    mass     pseudopotential
        Al             3.00    26.98200     Al( 1.00)
        N              5.00    14.00700     N ( 1.00)

     48 Sym. Ops., with inversion, found



   Cartesian axes

     site n.     atom                  positions (alat units)
         1           Al  tau(   1) = (   0.0000000   0.0000000   0.0000000  )
         2           N   tau(   2) = (  -0.7071068   0.7071068   0.7071068  )

     number of k points=     8
                       cart. coord. in units 2pi/alat
        k(    1) = (   0.0000000   0.0000000   0.0000000), wk =   0.0312500
        k(    2) = (  -0.1767767   0.1767767  -0.1767767), wk =   0.2500000
        k(    3) = (   0.3535534  -0.3535534   0.3535534), wk =   0.1250000
        k(    4) = (   0.0000000   0.3535534   0.0000000), wk =   0.1875000
        k(    5) = (   0.5303301  -0.1767767   0.5303301), wk =   0.7500000
        k(    6) = (   0.3535534   0.0000000   0.3535534), wk =   0.3750000
        k(    7) = (   0.0000000  -0.7071068   0.0000000), wk =   0.0937500
        k(    8) = (  -0.3535534  -0.7071068   0.0000000), wk =   0.1875000

     Dense  grid:    43599 G-vectors     FFT dimensions: (  50,  50,  50)

     Estimated max dynamical RAM per process >      53.98 MB

     Estimated total dynamical RAM >     205.27 MB

     Initial potential from superposition of free atoms

     starting charge       7.9977, renormalised to       8.0000
     Starting wfcs are    8 randomized atomic wfcs
     Checking if some PAW data can be deallocated... 

     total cpu time spent up to now is        0.5 secs

     Self-consistent Calculation

     iteration #  1     ecut=   200.00 Ry     beta= 0.20
     Davidson diagonalization with overlap
     ethr =  1.00E-02,  avg # of iterations =  1.8

     total cpu time spent up to now is        0.8 secs

     total energy              =     -67.95436382 Ry
     estimated scf accuracy    <       0.44699735 Ry

     iteration #  2     ecut=   200.00 Ry     beta= 0.20
     Davidson diagonalization with overlap
     ethr =  5.59E-03,  avg # of iterations =  1.0

     total cpu time spent up to now is        1.0 secs

     total energy              =     -67.82512999 Ry
     estimated scf accuracy    <       0.26822549 Ry

     iteration #  3     ecut=   200.00 Ry     beta= 0.20
     Davidson diagonalization with overlap
     ethr =  3.35E-03,  avg # of iterations =  2.0

     total cpu time spent up to now is        1.2 secs

     total energy              =     -67.89557912 Ry
     estimated scf accuracy    <       0.00852596 Ry

     iteration #  4     ecut=   200.00 Ry     beta= 0.20
     Davidson diagonalization with overlap
     ethr =  1.07E-04,  avg # of iterations =  2.1

     total cpu time spent up to now is        1.4 secs

     total energy              =     -67.89689208 Ry
     estimated scf accuracy    <       0.01154225 Ry

     iteration #  5     ecut=   200.00 Ry     beta= 0.20
     Davidson diagonalization with overlap
     ethr =  1.07E-04,  avg # of iterations =  1.6

     total cpu time spent up to now is        1.6 secs

     total energy              =     -67.89747040 Ry
     estimated scf accuracy    <       0.00189452 Ry

     iteration #  6     ecut=   200.00 Ry     beta= 0.20
     Davidson diagonalization with overlap
     ethr =  2.37E-05,  avg # of iterations =  1.5

     total cpu time spent up to now is        1.8 secs

     total energy              =     -67.89674574 Ry
     estimated scf accuracy    <       0.00103244 Ry

     iteration #  7     ecut=   200.00 Ry     beta= 0.20
     Davidson diagonalization with overlap
     ethr =  1.29E-05,  avg # of iterations =  2.2

     total cpu time spent up to now is        2.1 secs

     total energy              =     -67.89711530 Ry
     estimated scf accuracy    <       0.00070006 Ry

     iteration #  8     ecut=   200.00 Ry     beta= 0.20
     Davidson diagonalization with overlap
     ethr =  8.75E-06,  avg # of iterations =  2.0

     total cpu time spent up to now is        2.3 secs

     total energy              =     -67.89730259 Ry
     estimated scf accuracy    <       0.00004497 Ry

     iteration #  9     ecut=   200.00 Ry     beta= 0.20
     Davidson diagonalization with overlap
     ethr =  5.62E-07,  avg # of iterations =  2.1

     total cpu time spent up to now is        2.5 secs

     total energy              =     -67.89731114 Ry
     estimated scf accuracy    <       0.00000160 Ry

     iteration # 10     ecut=   200.00 Ry     beta= 0.20
     Davidson diagonalization with overlap
     ethr =  2.00E-08,  avg # of iterations =  2.5

     total cpu time spent up to now is        2.7 secs

     total energy              =     -67.89731220 Ry
     estimated scf accuracy    <       0.00000224 Ry

     iteration # 11     ecut=   200.00 Ry     beta= 0.20
     Davidson diagonalization with overlap
     ethr =  2.00E-08,  avg # of iterations =  1.2

     total cpu time spent up to now is        3.0 secs

     total energy              =     -67.89731267 Ry
     estimated scf accuracy    <       0.00000422 Ry

     iteration # 12     ecut=   200.00 Ry     beta= 0.20
     Davidson diagonalization with overlap
     ethr =  2.00E-08,  avg # of iterations =  1.0

     total cpu time spent up to now is        3.2 secs

     total energy              =     -67.89731247 Ry
     estimated scf accuracy    <       0.00000502 Ry

     iteration # 13     ecut=   200.00 Ry     beta= 0.20
     Davidson diagonalization with overlap
     ethr =  2.00E-08,  avg # of iterations =  1.0

     total cpu time spent up to now is        3.4 secs

     total energy              =     -67.89731232 Ry
     estimated scf accuracy    <       0.00000468 Ry

     iteration # 14     ecut=   200.00 Ry     beta= 0.20
     Davidson diagonalization with overlap
     ethr =  2.00E-08,  avg # of iterations =  1.0

     total cpu time spent up to now is        3.6 secs

     total energy              =     -67.89730951 Ry
     estimated scf accuracy    <       0.00000426 Ry

     iteration # 15     ecut=   200.00 Ry     beta= 0.20
     Davidson diagonalization with overlap
     ethr =  2.00E-08,  avg # of iterations =  3.1

     total cpu time spent up to now is        3.8 secs

     total energy              =     -67.89730980 Ry
     estimated scf accuracy    <       0.00000461 Ry

     iteration # 16     ecut=   200.00 Ry     beta= 0.20
     Davidson diagonalization with overlap
     ethr =  2.00E-08,  avg # of iterations =  3.9

     total cpu time spent up to now is        4.1 secs

     total energy              =     -67.89731104 Ry
     estimated scf accuracy    <       0.00000054 Ry

     iteration # 17     ecut=   200.00 Ry     beta= 0.20
     Davidson diagonalization with overlap
     ethr =  6.73E-09,  avg # of iterations =  2.5

     total cpu time spent up to now is        4.3 secs

     total energy              =     -67.89731124 Ry
     estimated scf accuracy    <       0.00000016 Ry

     iteration # 18     ecut=   200.00 Ry     beta= 0.20
     Davidson diagonalization with overlap
     ethr =  1.94E-09,  avg # of iterations =  1.1

     total cpu time spent up to now is        4.5 secs

     total energy              =     -67.89731124 Ry
     estimated scf accuracy    <       0.00000003 Ry

     iteration # 19     ecut=   200.00 Ry     beta= 0.20
     Davidson diagonalization with overlap
     ethr =  3.30E-10,  avg # of iterations =  2.4

     total cpu time spent up to now is        4.7 secs

     End of self-consistent calculation

          k = 0.0000 0.0000 0.0000 (  5521 PWs)   bands (ev):

    -6.4403  10.9733  10.9733  10.9733

          k =-0.1768 0.1768-0.1768 (  5414 PWs)   bands (ev):

    -5.2326   6.6516  10.3960  10.3960

          k = 0.3536-0.3536 0.3536 (  5444 PWs)   bands (ev):

    -3.2417   2.7468   9.9156   9.9156

          k = 0.0000 0.3536 0.0000 (  5425 PWs)   bands (ev):

    -4.8475   7.1610   9.3643   9.3643

          k = 0.5303-0.1768 0.5303 (  5434 PWs)   bands (ev):

    -2.8955   4.1860   7.1855   8.9567

          k = 0.3536 0.0000 0.3536 (  5428 PWs)   bands (ev):

    -3.5781   5.0710   6.8811   9.8632

          k = 0.0000-0.7071 0.0000 (  5434 PWs)   bands (ev):

    -2.2840   3.6773   8.2049   8.2049

          k =-0.3536-0.7071 0.0000 (  5440 PWs)   bands (ev):

    -2.1287   5.3379   5.3379   7.0844

     highest occupied level (ev):    10.9733

!    total energy              =     -67.89731125 Ry
     total all-electron energy =      -595.338890 Ry
     estimated scf accuracy    <          7.5E-10 Ry

     The total energy is the sum of the following terms:
     one-electron contribution =       3.31531148 Ry
     hartree contribution      =       4.58510684 Ry
     xc contribution           =      -8.64716916 Ry
     ewald contribution        =     -24.51862769 Ry
     one-center paw contrib.   =     -42.63193272 Ry

     convergence has been achieved in  19 iterations

     Forces acting on atoms (cartesian axes, Ry/au):

     atom    1 type  1   force =    -0.00000000   -0.00000000    0.00000000
     atom    2 type  2   force =     0.00000000    0.00000000   -0.00000000

     Total force =     0.000000     Total SCF correction =     0.000000


     Computing stress (Cartesian axis) and pressure

          total   stress  (Ry/bohr**3)                   (kbar)     P=        6.57
   0.00004464   0.00000000  -0.00000000            6.57        0.00       -0.00
   0.00000000   0.00004464   0.00000000            0.00        6.57        0.00
  -0.00000000   0.00000000   0.00004464           -0.00        0.00        6.57


     Writing all to output data dir ../output/AlN.save/
 
     init_run     :      0.34s CPU      0.37s WALL (       1 calls)
     electrons    :      3.82s CPU      4.25s WALL (       1 calls)
     forces       :      0.07s CPU      0.08s WALL (       1 calls)
     stress       :      0.35s CPU      0.37s WALL (       1 calls)

     Called by init_run:
     wfcinit      :      0.03s CPU      0.04s WALL (       1 calls)
     potinit      :      0.08s CPU      0.08s WALL (       1 calls)
     hinit0       :      0.18s CPU      0.19s WALL (       1 calls)

     Called by electrons:
     c_bands      :      0.98s CPU      1.00s WALL (      19 calls)
     sum_band     :      0.72s CPU      0.90s WALL (      19 calls)
     v_of_rho     :      0.37s CPU      0.37s WALL (      20 calls)
     newd         :      0.47s CPU      0.63s WALL (      20 calls)
     PAW_pot      :      0.96s CPU      0.97s WALL (      20 calls)
     mix_rho      :      0.39s CPU      0.43s WALL (      19 calls)

     Called by c_bands:
     init_us_2    :      0.08s CPU      0.09s WALL (     164 calls)
     init_us_2:cp :      0.08s CPU      0.09s WALL (     164 calls)
     cegterg      :      0.73s CPU      0.74s WALL (      76 calls)

     Called by *egterg:
     cdiaghg      :      0.01s CPU      0.01s WALL (     213 calls)
     h_psi        :      0.68s CPU      0.69s WALL (     217 calls)
     s_psi        :      0.02s CPU      0.02s WALL (     217 calls)
     g_psi        :      0.00s CPU      0.00s WALL (     137 calls)

     Called by h_psi:
     h_psi:calbec :      0.02s CPU      0.02s WALL (     217 calls)
     vloc_psi     :      0.63s CPU      0.64s WALL (     217 calls)
     add_vuspsi   :      0.02s CPU      0.02s WALL (     217 calls)

     General routines
     calbec       :      0.04s CPU      0.04s WALL (     313 calls)
     fft          :      0.15s CPU      0.15s WALL (     245 calls)
     ffts         :      0.20s CPU      0.21s WALL (     357 calls)
     fftw         :      0.65s CPU      0.66s WALL (    1944 calls)
 
     Parallel routines
 
     PWSCF        :      4.69s CPU      5.28s WALL

 
   This run was terminated on:  16:24:59  27Apr2026            

=------------------------------------------------------------------------------=
   JOB DONE.
=------------------------------------------------------------------------------=
