
     Program PWSCF v.7.1 starts on 27Apr2026 at 16:26:54 

     This program is part of the open-source Quantum ESPRESSO suite
     for quantum simulation of materials; please cite
         "P. Giannozzi et al., J. Phys.:Condens. Matter 21 395502 (2009);
         "P. Giannozzi et al., J. Phys.:Condens. Matter 29 465901 (2017);
         "P. Giannozzi et al., J. Chem. Phys. 152 154105 (2020);
          URL http://www.quantum-espresso.org", 
     in publications or presentations arising from this work. More details at
     http://www.quantum-espresso.org/quote

     Parallel version (MPI & OpenMP), running on       4 processor cores
     Number of MPI processes:                 4
     Threads/MPI process:                     1

     MPI processes distributed on     1 nodes
     91793 MiB available memory on the printing compute node when the environment starts
 
     Reading input from AlN_scf.in

     Current dimensions of program PWSCF are:
     Max number of different atomic species (ntypx) = 10
     Max number of k-points (npk) = 150000
     Max angular momentum in pseudopotentials (lmaxx) =  4
     file Al.pbe-n-kjpaw_psl.1.0.0.UPF: wavefunction(s)  3S 3P renormalized
     file N.pbe-n-kjpaw_psl.1.0.0.UPF: wavefunction(s)  2S renormalized
     Message from routine setup:
     using ibrav=0 with symmetry is DISCOURAGED, use correct ibrav instead
 
     K-points division:     npool     =       2
     R & G space division:  proc/nbgrp/npool/nimage =       2
     Subspace diagonalization in iterative solution of the eigenvalue problem:
     a serial algorithm will be used

 
     Parallelization info
     --------------------
     sticks:   dense  smooth     PW     G-vecs:    dense   smooth      PW
     Min         819     819    237                21799    21799    3367
     Max         820     820    238                21800    21800    3368
     Sum        1639    1639    475                43599    43599    6735
 
     Using Slab Decomposition
 


     bravais-lattice index     =            0
     lattice parameter (alat)  =       5.4385  a.u.
     unit-cell volume          =     113.7417 (a.u.)^3
     number of atoms/cell      =            2
     number of atomic types    =            2
     number of electrons       =         8.00
     number of Kohn-Sham states=            4
     kinetic-energy cutoff     =     200.0000  Ry
     charge density cutoff     =     800.0000  Ry
     scf convergence threshold =      1.0E-08
     mixing beta               =       0.2000
     number of iterations used =            8  local-TF  mixing
     Exchange-correlation= SLA  PW   PBX  PBC
                           (   1   4   3   4   0   0   0)

     celldm(1)=   5.438489  celldm(2)=   0.000000  celldm(3)=   0.000000
     celldm(4)=   0.000000  celldm(5)=   0.000000  celldm(6)=   0.000000

     crystal axes: (cart. coord. in units of alat)
               a(1) = (  -0.707107   0.000000   0.707107 )  
               a(2) = (   0.000000   0.707107   0.707107 )  
               a(3) = (  -0.707107   0.707107   0.000000 )  

     reciprocal axes: (cart. coord. in units 2 pi/alat)
               b(1) = ( -0.707107 -0.707107  0.707107 )  
               b(2) = (  0.707107  0.707107  0.707107 )  
               b(3) = ( -0.707107  0.707107 -0.707107 )  


     PseudoPot. # 1 for Al read from file:
     ../../pseudo/Al.pbe-n-kjpaw_psl.1.0.0.UPF
     MD5 check sum: 502b6b27b9c6270cab5dd1084b96fa6d
     Pseudo is Projector augmented-wave + core cor, Zval =  3.0
     Generated using &quot;atomic&quot; code by A. Dal Corso  v.6.3
     Shape of augmentation charge: PSQ
     Using radial grid of 1135 points,  6 beta functions with: 
                l(1) =   0
                l(2) =   0
                l(3) =   1
                l(4) =   1
                l(5) =   2
                l(6) =   2
     Q(r) pseudized with 0 coefficients 


     PseudoPot. # 2 for N  read from file:
     ../../pseudo/N.pbe-n-kjpaw_psl.1.0.0.UPF
     MD5 check sum: 14c48229446f9f2d411169a3abcbc3fa
     Pseudo is Projector augmented-wave + core cor, Zval =  5.0
     Generated using &quot;atomic&quot; code by A. Dal Corso  v.6.3
     Shape of augmentation charge: PSQ
     Using radial grid of 1085 points,  4 beta functions with: 
                l(1) =   0
                l(2) =   0
                l(3) =   1
                l(4) =   1
     Q(r) pseudized with 0 coefficients 


     atomic species   valence    mass     pseudopotential
        Al             3.00    26.98200     Al( 1.00)
        N              5.00    14.00700     N ( 1.00)

     48 Sym. Ops., with inversion, found



   Cartesian axes

     site n.     atom                  positions (alat units)
         1           Al  tau(   1) = (   0.0000000   0.0000000   0.0000000  )
         2           N   tau(   2) = (  -0.7071068   0.7071068   0.7071068  )

     number of k points=    29
                       cart. coord. in units 2pi/alat
        k(    1) = (   0.0000000   0.0000000   0.0000000), wk =   0.0039062
        k(    2) = (  -0.0883883   0.0883883  -0.0883883), wk =   0.0312500
        k(    3) = (  -0.1767767   0.1767767  -0.1767767), wk =   0.0312500
        k(    4) = (  -0.2651650   0.2651650  -0.2651650), wk =   0.0312500
        k(    5) = (   0.3535534  -0.3535534   0.3535534), wk =   0.0156250
        k(    6) = (   0.0000000   0.1767767   0.0000000), wk =   0.0234375
        k(    7) = (  -0.0883883   0.2651650  -0.0883883), wk =   0.0937500
        k(    8) = (  -0.1767767   0.3535534  -0.1767767), wk =   0.0937500
        k(    9) = (   0.4419417  -0.2651650   0.4419417), wk =   0.0937500
        k(   10) = (   0.3535534  -0.1767767   0.3535534), wk =   0.0937500
        k(   11) = (   0.2651650  -0.0883883   0.2651650), wk =   0.0937500
        k(   12) = (   0.1767767   0.0000000   0.1767767), wk =   0.0468750
        k(   13) = (   0.0000000   0.3535534   0.0000000), wk =   0.0234375
        k(   14) = (  -0.0883883   0.4419417  -0.0883883), wk =   0.0937500
        k(   15) = (   0.5303301  -0.1767767   0.5303301), wk =   0.0937500
        k(   16) = (   0.4419417  -0.0883883   0.4419417), wk =   0.0937500
        k(   17) = (   0.3535534   0.0000000   0.3535534), wk =   0.0468750
        k(   18) = (   0.0000000   0.5303301   0.0000000), wk =   0.0234375
        k(   19) = (   0.6187184  -0.0883883   0.6187184), wk =   0.0937500
        k(   20) = (   0.5303301   0.0000000   0.5303301), wk =   0.0468750
        k(   21) = (   0.0000000  -0.7071068   0.0000000), wk =   0.0117188
        k(   22) = (  -0.1767767   0.3535534   0.0000000), wk =   0.0937500
        k(   23) = (   0.4419417  -0.2651650   0.6187184), wk =   0.1875000
        k(   24) = (   0.3535534  -0.1767767   0.5303301), wk =   0.0937500
        k(   25) = (   0.5303301  -0.1767767   0.7071068), wk =   0.0937500
        k(   26) = (   0.4419417  -0.0883883   0.6187184), wk =   0.1875000
        k(   27) = (   0.3535534   0.0000000   0.5303301), wk =   0.0937500
        k(   28) = (  -0.1767767  -0.7071068  -0.0000000), wk =   0.0468750
        k(   29) = (  -0.3535534  -0.7071068   0.0000000), wk =   0.0234375

     Dense  grid:    43599 G-vectors     FFT dimensions: (  50,  50,  50)

     Estimated max dynamical RAM per process >      55.80 MB

     Estimated total dynamical RAM >     212.56 MB

     Initial potential from superposition of free atoms

     starting charge       7.9977, renormalised to       8.0000
     Starting wfcs are    8 randomized atomic wfcs
     Checking if some PAW data can be deallocated... 

     total cpu time spent up to now is        0.6 secs

     Self-consistent Calculation

     iteration #  1     ecut=   200.00 Ry     beta= 0.20
     Davidson diagonalization with overlap
     ethr =  1.00E-02,  avg # of iterations =  1.9

     total cpu time spent up to now is        1.0 secs

     total energy              =     -67.95667989 Ry
     estimated scf accuracy    <       0.44245518 Ry

     iteration #  2     ecut=   200.00 Ry     beta= 0.20
     Davidson diagonalization with overlap
     ethr =  5.53E-03,  avg # of iterations =  1.0

     total cpu time spent up to now is        1.4 secs

     total energy              =     -67.83514752 Ry
     estimated scf accuracy    <       0.26104207 Ry

     iteration #  3     ecut=   200.00 Ry     beta= 0.20
     Davidson diagonalization with overlap
     ethr =  3.26E-03,  avg # of iterations =  2.0

     total cpu time spent up to now is        1.8 secs

     total energy              =     -67.90122423 Ry
     estimated scf accuracy    <       0.00744830 Ry

     iteration #  4     ecut=   200.00 Ry     beta= 0.20
     Davidson diagonalization with overlap
     ethr =  9.31E-05,  avg # of iterations =  2.6

     total cpu time spent up to now is        2.3 secs

     total energy              =     -67.90342067 Ry
     estimated scf accuracy    <       0.00489754 Ry

     iteration #  5     ecut=   200.00 Ry     beta= 0.20
     Davidson diagonalization with overlap
     ethr =  6.12E-05,  avg # of iterations =  1.4

     total cpu time spent up to now is        2.6 secs

     total energy              =     -67.90300638 Ry
     estimated scf accuracy    <       0.00159656 Ry

     iteration #  6     ecut=   200.00 Ry     beta= 0.20
     Davidson diagonalization with overlap
     ethr =  2.00E-05,  avg # of iterations =  2.8

     total cpu time spent up to now is        3.1 secs

     total energy              =     -67.90352013 Ry
     estimated scf accuracy    <       0.00006880 Ry

     iteration #  7     ecut=   200.00 Ry     beta= 0.20
     Davidson diagonalization with overlap
     ethr =  8.60E-07,  avg # of iterations =  2.6

     total cpu time spent up to now is        3.5 secs

     total energy              =     -67.90323830 Ry
     estimated scf accuracy    <       0.00061544 Ry

     iteration #  8     ecut=   200.00 Ry     beta= 0.20
     Davidson diagonalization with overlap
     ethr =  8.60E-07,  avg # of iterations =  3.2

     total cpu time spent up to now is        4.0 secs

     total energy              =     -67.90336271 Ry
     estimated scf accuracy    <       0.00000003 Ry

     iteration #  9     ecut=   200.00 Ry     beta= 0.20
     Davidson diagonalization with overlap
     ethr =  3.59E-10,  avg # of iterations =  7.1

     total cpu time spent up to now is        4.7 secs

     total energy              =     -67.90336316 Ry
     estimated scf accuracy    <       0.00000003 Ry

     iteration # 10     ecut=   200.00 Ry     beta= 0.20
     Davidson diagonalization with overlap
     ethr =  3.50E-10,  avg # of iterations =  4.6

     total cpu time spent up to now is        5.2 secs

     total energy              =     -67.90336290 Ry
     estimated scf accuracy    <       0.00000074 Ry

     iteration # 11     ecut=   200.00 Ry     beta= 0.20
     Davidson diagonalization with overlap
     ethr =  3.50E-10,  avg # of iterations =  3.8

     total cpu time spent up to now is        5.7 secs

     total energy              =     -67.90336296 Ry
     estimated scf accuracy    <       0.00000003 Ry

     iteration # 12     ecut=   200.00 Ry     beta= 0.20
     Davidson diagonalization with overlap
     ethr =  3.50E-10,  avg # of iterations =  2.0

     total cpu time spent up to now is        6.1 secs

     End of self-consistent calculation

          k = 0.0000 0.0000 0.0000 (  5521 PWs)   bands (ev):

    -6.4732  10.9193  10.9193  10.9193

          k =-0.0884 0.0884-0.0884 (  5435 PWs)   bands (ev):

    -6.1597   9.4230  10.7385  10.7385

          k =-0.1768 0.1768-0.1768 (  5414 PWs)   bands (ev):

    -5.2685   6.6152  10.3451  10.3451

          k =-0.2652 0.2652-0.2652 (  5432 PWs)   bands (ev):

    -4.0319   3.9727   9.9989   9.9989

          k = 0.3536-0.3536 0.3536 (  5444 PWs)   bands (ev):

    -3.2865   2.7254   9.8665   9.8665

          k = 0.0000 0.1768 0.0000 (  5445 PWs)   bands (ev):

    -6.0563   9.5458  10.3795  10.3795

          k =-0.0884 0.2652-0.0884 (  5430 PWs)   bands (ev):

    -5.3596   7.4787   9.8983   9.9685

          k =-0.1768 0.3536-0.1768 (  5435 PWs)   bands (ev):

    -4.2223   4.9243   9.3397   9.5784

          k = 0.4419-0.2652 0.4419 (  5440 PWs)   bands (ev):

    -3.2054   3.1667   8.8071   9.5579

          k = 0.3536-0.1768 0.3536 (  5436 PWs)   bands (ev):

    -3.4629   3.5860   8.6071   9.8404

          k = 0.2652-0.0884 0.2652 (  5429 PWs)   bands (ev):

    -4.6322   5.7556   8.8569  10.3053

          k = 0.1768 0.0000 0.1768 (  5420 PWs)   bands (ev):

    -5.6534   8.0993   9.6938  10.7009

          k = 0.0000 0.3536 0.0000 (  5425 PWs)   bands (ev):

    -4.8844   7.1197   9.3200   9.3200

          k =-0.0884 0.4419-0.0884 (  5449 PWs)   bands (ev):

    -3.9499   5.5724   8.4148   8.9405

          k = 0.5303-0.1768 0.5303 (  5434 PWs)   bands (ev):

    -2.9412   4.1594   7.1513   8.9136

          k = 0.4419-0.0884 0.4419 (  5422 PWs)   bands (ev):

    -2.7554   4.0217   6.3930   9.2488

          k = 0.3536 0.0000 0.3536 (  5428 PWs)   bands (ev):

    -3.6201   5.0395   6.8492   9.8148

          k = 0.0000 0.5303 0.0000 (  5462 PWs)   bands (ev):

    -3.2876   4.8174   8.4738   8.4738

          k = 0.6187-0.0884 0.6187 (  5440 PWs)   bands (ev):

    -2.5507   4.1176   7.3126   8.3693

          k = 0.5303 0.0000 0.5303 (  5444 PWs)   bands (ev):

    -2.3141   4.5011   5.5377   8.6619

          k = 0.0000-0.7071 0.0000 (  5434 PWs)   bands (ev):

    -2.3336   3.6526   8.1653   8.1653

          k =-0.1768 0.3536 0.0000 (  5430 PWs)   bands (ev):

    -4.5349   6.2376   8.4105   9.7633

          k = 0.4419-0.2652 0.6187 (  5436 PWs)   bands (ev):

    -3.4292   4.5393   7.5004   9.2364

          k = 0.3536-0.1768 0.5303 (  5414 PWs)   bands (ev):

    -2.8010   3.5999   7.2791   8.9733

          k = 0.5303-0.1768 0.7071 (  5442 PWs)   bands (ev):

    -3.0697   4.7549   7.4210   8.2812

          k = 0.4419-0.0884 0.6187 (  5434 PWs)   bands (ev):

    -2.4116   4.4767   6.0635   8.0133

          k = 0.3536 0.0000 0.5303 (  5433 PWs)   bands (ev):

    -2.6093   4.7331   5.7107   8.4840

          k =-0.1768-0.7071-0.0000 (  5436 PWs)   bands (ev):

    -2.2581   4.0798   7.0654   7.5614

          k =-0.3536-0.7071 0.0000 (  5440 PWs)   bands (ev):

    -2.1795   5.3100   5.3100   7.0536

     highest occupied level (ev):    10.9193

!    total energy              =     -67.90336295 Ry
     total all-electron energy =      -595.344941 Ry
     estimated scf accuracy    <          5.5E-09 Ry

     The total energy is the sum of the following terms:
     one-electron contribution =       3.32955133 Ry
     hartree contribution      =       4.56056444 Ry
     xc contribution           =      -8.64075952 Ry
     ewald contribution        =     -24.51862769 Ry
     one-center paw contrib.   =     -42.63409152 Ry

     convergence has been achieved in  12 iterations

     Forces acting on atoms (cartesian axes, Ry/au):

     atom    1 type  1   force =    -0.00000000    0.00000000   -0.00000000
     atom    2 type  2   force =     0.00000000    0.00000000   -0.00000000

     Total force =     0.000000     Total SCF correction =     0.000000


     Computing stress (Cartesian axis) and pressure

          total   stress  (Ry/bohr**3)                   (kbar)     P=        6.16
   0.00004186   0.00000000   0.00000000            6.16        0.00        0.00
  -0.00000000   0.00004186  -0.00000000           -0.00        6.16       -0.00
  -0.00000000  -0.00000000   0.00004186           -0.00       -0.00        6.16


     Writing all to output data dir ../output/AlN.save/
 
     init_run     :      0.46s CPU      0.50s WALL (       1 calls)
     electrons    :      5.19s CPU      5.46s WALL (       1 calls)
     forces       :      0.10s CPU      0.11s WALL (       1 calls)
     stress       :      0.43s CPU      0.46s WALL (       1 calls)

     Called by init_run:
     wfcinit      :      0.13s CPU      0.13s WALL (       1 calls)
     potinit      :      0.10s CPU      0.11s WALL (       1 calls)
     hinit0       :      0.19s CPU      0.19s WALL (       1 calls)

     Called by electrons:
     c_bands      :      2.98s CPU      3.02s WALL (      12 calls)
     sum_band     :      0.81s CPU      0.92s WALL (      12 calls)
     v_of_rho     :      0.24s CPU      0.25s WALL (      13 calls)
     newd         :      0.31s CPU      0.42s WALL (      13 calls)
     PAW_pot      :      0.64s CPU      0.64s WALL (      13 calls)
     mix_rho      :      0.28s CPU      0.29s WALL (      12 calls)

     Called by c_bands:
     init_us_2    :      0.21s CPU      0.22s WALL (     405 calls)
     init_us_2:cp :      0.21s CPU      0.22s WALL (     405 calls)
     cegterg      :      2.35s CPU      2.38s WALL (     180 calls)

     Called by *egterg:
     cdiaghg      :      0.03s CPU      0.03s WALL (     700 calls)
     h_psi        :      2.19s CPU      2.22s WALL (     715 calls)
     s_psi        :      0.06s CPU      0.06s WALL (     715 calls)
     g_psi        :      0.02s CPU      0.02s WALL (     520 calls)

     Called by h_psi:
     h_psi:calbec :      0.07s CPU      0.08s WALL (     715 calls)
     vloc_psi     :      2.04s CPU      2.07s WALL (     715 calls)
     add_vuspsi   :      0.06s CPU      0.06s WALL (     715 calls)

     General routines
     calbec       :      0.10s CPU      0.10s WALL (     970 calls)
     fft          :      0.11s CPU      0.11s WALL (     168 calls)
     ffts         :      0.15s CPU      0.16s WALL (     219 calls)
     fftw         :      2.02s CPU      2.04s WALL (    5754 calls)
 
     Parallel routines
 
     PWSCF        :      6.30s CPU      6.75s WALL

 
   This run was terminated on:  16:27: 0  27Apr2026            

=------------------------------------------------------------------------------=
   JOB DONE.
=------------------------------------------------------------------------------=
