
     Program PWSCF v.7.1 starts on 11May2026 at  3:27:20 

     This program is part of the open-source Quantum ESPRESSO suite
     for quantum simulation of materials; please cite
         "P. Giannozzi et al., J. Phys.:Condens. Matter 21 395502 (2009);
         "P. Giannozzi et al., J. Phys.:Condens. Matter 29 465901 (2017);
         "P. Giannozzi et al., J. Chem. Phys. 152 154105 (2020);
          URL http://www.quantum-espresso.org", 
     in publications or presentations arising from this work. More details at
     http://www.quantum-espresso.org/quote

     Parallel version (MPI & OpenMP), running on      32 processor cores
     Number of MPI processes:                32
     Threads/MPI process:                     1

     MPI processes distributed on     1 nodes
     381411 MiB available memory on the printing compute node when the environment starts
 
     Reading input from relax_sqs_x0625.in

     Current dimensions of program PWSCF are:
     Max number of different atomic species (ntypx) = 10
     Max number of k-points (npk) = 150000
     Max angular momentum in pseudopotentials (lmaxx) =  4
     file Al.pbe-n-kjpaw_psl.1.0.0.UPF: wavefunction(s)  3S 3P renormalized
     file N.pbe-n-kjpaw_psl.1.0.0.UPF: wavefunction(s)  2S renormalized
     file Ti.pbe-spn-kjpaw_psl.1.0.0.UPF: wavefunction(s)  3S 3P 3D renormalized
 
     K-points division:     npool     =       4
     R & G space division:  proc/nbgrp/npool/nimage =       8
     Subspace diagonalization in iterative solution of the eigenvalue problem:
     one sub-group per band group will be used
     scalapack distributed-memory algorithm (size of sub-group:  2*  2 procs)

 
     Parallelization info
     --------------------
     sticks:   dense  smooth     PW     G-vecs:    dense   smooth      PW
     Min         583     583    159                29943    29943    4283
     Max         584     584    161                29946    29946    4284
     Sum        4669    4669   1281               239553   239553   34265
 
     Using Slab Decomposition
 


     bravais-lattice index     =            0
     lattice parameter (alat)  =      15.6233  a.u.
     unit-cell volume          =    3813.4601 (a.u.)^3
     number of atoms/cell      =           64
     number of atomic types    =            3
     number of electrons       =       364.00
     number of Kohn-Sham states=          218
     kinetic-energy cutoff     =      60.0000  Ry
     charge density cutoff     =     240.0000  Ry
     scf convergence threshold =      1.0E-06
     mixing beta               =       0.2000
     number of iterations used =            8  local-TF  mixing
     energy convergence thresh.=      1.0E-04
     force convergence thresh. =      1.0E-03
     Exchange-correlation= SLA  PW   PBX  PBC
                           (   1   4   3   4   0   0   0)
     nstep                     =            8


     celldm(1)=  15.623311  celldm(2)=   0.000000  celldm(3)=   0.000000
     celldm(4)=   0.000000  celldm(5)=   0.000000  celldm(6)=   0.000000

     crystal axes: (cart. coord. in units of alat)
               a(1) = (   1.000000   0.000000   0.000000 )  
               a(2) = (   0.000000   1.000000   0.000000 )  
               a(3) = (   0.000000   0.000000   1.000000 )  

     reciprocal axes: (cart. coord. in units 2 pi/alat)
               b(1) = (  1.000000  0.000000  0.000000 )  
               b(2) = (  0.000000  1.000000  0.000000 )  
               b(3) = (  0.000000  0.000000  1.000000 )  


     PseudoPot. # 1 for Al read from file:
     ../../pseudo/Al.pbe-n-kjpaw_psl.1.0.0.UPF
     MD5 check sum: 502b6b27b9c6270cab5dd1084b96fa6d
     Pseudo is Projector augmented-wave + core cor, Zval =  3.0
     Generated using &quot;atomic&quot; code by A. Dal Corso  v.6.3
     Shape of augmentation charge: PSQ
     Using radial grid of 1135 points,  6 beta functions with: 
                l(1) =   0
                l(2) =   0
                l(3) =   1
                l(4) =   1
                l(5) =   2
                l(6) =   2
     Q(r) pseudized with 0 coefficients 


     PseudoPot. # 2 for N  read from file:
     ../../pseudo/N.pbe-n-kjpaw_psl.1.0.0.UPF
     MD5 check sum: 14c48229446f9f2d411169a3abcbc3fa
     Pseudo is Projector augmented-wave + core cor, Zval =  5.0
     Generated using &quot;atomic&quot; code by A. Dal Corso  v.6.3
     Shape of augmentation charge: PSQ
     Using radial grid of 1085 points,  4 beta functions with: 
                l(1) =   0
                l(2) =   0
                l(3) =   1
                l(4) =   1
     Q(r) pseudized with 0 coefficients 


     PseudoPot. # 3 for Ti read from file:
     ../../pseudo/Ti.pbe-spn-kjpaw_psl.1.0.0.UPF
     MD5 check sum: 01f69b0d8ba4438b2e03ac6ea4af1c0b
     Pseudo is Projector augmented-wave + core cor, Zval = 12.0
     Generated using &quot;atomic&quot; code by A. Dal Corso  v.6.2.2
     Shape of augmentation charge: PSQ
     Using radial grid of 1177 points,  6 beta functions with: 
                l(1) =   0
                l(2) =   0
                l(3) =   1
                l(4) =   1
                l(5) =   2
                l(6) =   2
     Q(r) pseudized with 0 coefficients 


     atomic species   valence    mass     pseudopotential
        Al             3.00    26.98200     Al( 1.00)
        N              5.00    14.00700     N ( 1.00)
        Ti            12.00    47.86700     Ti( 1.00)

     No symmetry found



   Cartesian axes

     site n.     atom                  positions (alat units)
         1           Al  tau(   1) = (   0.0000000   0.0000000   0.0000000  )
         2           N   tau(   2) = (   0.2500000   0.0000000   0.0000000  )
         3           Ti  tau(   3) = (   0.0000000   0.2500000   0.2500000  )
         4           N   tau(   4) = (   0.2500000   0.2500000   0.2500000  )
         5           Ti  tau(   5) = (   0.2500000   0.0000000   0.2500000  )
         6           N   tau(   6) = (   0.0000000   0.0000000   0.2500000  )
         7           Al  tau(   7) = (   0.2500000   0.2500000   0.0000000  )
         8           N   tau(   8) = (   0.0000000   0.2500000   0.0000000  )
         9           Al  tau(   9) = (   0.0000000   0.0000000   0.5000000  )
        10           N   tau(  10) = (   0.2500000   0.0000000   0.5000000  )
        11           Ti  tau(  11) = (   0.0000000   0.2500000   0.7500000  )
        12           N   tau(  12) = (   0.2500000   0.2500000   0.7500000  )
        13           Al  tau(  13) = (   0.2500000   0.0000000   0.7500000  )
        14           N   tau(  14) = (   0.0000000   0.0000000   0.7500000  )
        15           Al  tau(  15) = (   0.2500000   0.2500000   0.5000000  )
        16           N   tau(  16) = (   0.0000000   0.2500000   0.5000000  )
        17           Al  tau(  17) = (   0.0000000   0.5000000   0.0000000  )
        18           N   tau(  18) = (   0.2500000   0.5000000   0.0000000  )
        19           Ti  tau(  19) = (   0.0000000   0.7500000   0.2500000  )
        20           N   tau(  20) = (   0.2500000   0.7500000   0.2500000  )
        21           Al  tau(  21) = (   0.2500000   0.5000000   0.2500000  )
        22           N   tau(  22) = (   0.0000000   0.5000000   0.2500000  )
        23           Al  tau(  23) = (   0.2500000   0.7500000   0.0000000  )
        24           N   tau(  24) = (   0.0000000   0.7500000   0.0000000  )
        25           Ti  tau(  25) = (   0.0000000   0.5000000   0.5000000  )
        26           N   tau(  26) = (   0.2500000   0.5000000   0.5000000  )
        27           Al  tau(  27) = (   0.0000000   0.7500000   0.7500000  )
        28           N   tau(  28) = (   0.2500000   0.7500000   0.7500000  )
        29           Al  tau(  29) = (   0.2500000   0.5000000   0.7500000  )
        30           N   tau(  30) = (   0.0000000   0.5000000   0.7500000  )
        31           Ti  tau(  31) = (   0.2500000   0.7500000   0.5000000  )
        32           N   tau(  32) = (   0.0000000   0.7500000   0.5000000  )
        33           Al  tau(  33) = (   0.5000000   0.0000000   0.0000000  )
        34           N   tau(  34) = (   0.7500000   0.0000000   0.0000000  )
        35           Ti  tau(  35) = (   0.5000000   0.2500000   0.2500000  )
        36           N   tau(  36) = (   0.7500000   0.2500000   0.2500000  )
        37           Ti  tau(  37) = (   0.7500000   0.0000000   0.2500000  )
        38           N   tau(  38) = (   0.5000000   0.0000000   0.2500000  )
        39           Al  tau(  39) = (   0.7500000   0.2500000   0.0000000  )
        40           N   tau(  40) = (   0.5000000   0.2500000   0.0000000  )
        41           Ti  tau(  41) = (   0.5000000   0.0000000   0.5000000  )
        42           N   tau(  42) = (   0.7500000   0.0000000   0.5000000  )
        43           Al  tau(  43) = (   0.5000000   0.2500000   0.7500000  )
        44           N   tau(  44) = (   0.7500000   0.2500000   0.7500000  )
        45           Al  tau(  45) = (   0.7500000   0.0000000   0.7500000  )
        46           N   tau(  46) = (   0.5000000   0.0000000   0.7500000  )
        47           Ti  tau(  47) = (   0.7500000   0.2500000   0.5000000  )
        48           N   tau(  48) = (   0.5000000   0.2500000   0.5000000  )
        49           Al  tau(  49) = (   0.5000000   0.5000000   0.0000000  )
        50           N   tau(  50) = (   0.7500000   0.5000000   0.0000000  )
        51           Al  tau(  51) = (   0.5000000   0.7500000   0.2500000  )
        52           N   tau(  52) = (   0.7500000   0.7500000   0.2500000  )
        53           Al  tau(  53) = (   0.7500000   0.5000000   0.2500000  )
        54           N   tau(  54) = (   0.5000000   0.5000000   0.2500000  )
        55           Ti  tau(  55) = (   0.7500000   0.7500000   0.0000000  )
        56           N   tau(  56) = (   0.5000000   0.7500000   0.0000000  )
        57           Ti  tau(  57) = (   0.5000000   0.5000000   0.5000000  )
        58           N   tau(  58) = (   0.7500000   0.5000000   0.5000000  )
        59           Al  tau(  59) = (   0.5000000   0.7500000   0.7500000  )
        60           N   tau(  60) = (   0.7500000   0.7500000   0.7500000  )
        61           Al  tau(  61) = (   0.7500000   0.5000000   0.7500000  )
        62           N   tau(  62) = (   0.5000000   0.5000000   0.7500000  )
        63           Al  tau(  63) = (   0.7500000   0.7500000   0.5000000  )
        64           N   tau(  64) = (   0.5000000   0.7500000   0.5000000  )

     number of k points=     8  Gaussian smearing, width (Ry)=  0.0050
                       cart. coord. in units 2pi/alat
        k(    1) = (   0.0000000   0.0000000   0.0000000), wk =   0.2500000
        k(    2) = (   0.0000000   0.0000000  -0.5000000), wk =   0.2500000
        k(    3) = (   0.0000000  -0.5000000  -0.5000000), wk =   0.2500000
        k(    4) = (  -0.5000000  -0.5000000  -0.5000000), wk =   0.2500000
        k(    5) = (  -0.5000000   0.0000000   0.0000000), wk =   0.2500000
        k(    6) = (   0.0000000  -0.5000000   0.0000000), wk =   0.2500000
        k(    7) = (  -0.5000000   0.0000000   0.5000000), wk =   0.2500000
        k(    8) = (  -0.5000000   0.5000000   0.0000000), wk =   0.2500000

     Dense  grid:   239553 G-vectors     FFT dimensions: (  80,  80,  80)

     Estimated max dynamical RAM per process >     186.84 MB

     Estimated total dynamical RAM >       5.67 GB

     Check: negative core charge=   -0.000017

     Initial potential from superposition of free atoms

     starting charge     363.9362, renormalised to     364.0000
     Starting wfcs are  328 randomized atomic wfcs
     Checking if some PAW data can be deallocated... 

     total cpu time spent up to now is        3.2 secs

     Self-consistent Calculation

     iteration #  1     ecut=    60.00 Ry     beta= 0.20
     Davidson diagonalization with overlap
     ethr =  1.00E-02,  avg # of iterations =  2.0

     total cpu time spent up to now is        8.7 secs

     total energy              =   -3905.28766186 Ry
     estimated scf accuracy    <      17.01276942 Ry

     iteration #  2     ecut=    60.00 Ry     beta= 0.20
     Davidson diagonalization with overlap
     ethr =  4.67E-03,  avg # of iterations =  1.0

     total cpu time spent up to now is       13.3 secs

     total energy              =   -3901.21972608 Ry
     estimated scf accuracy    <       9.54428208 Ry

     iteration #  3     ecut=    60.00 Ry     beta= 0.20
     Davidson diagonalization with overlap
     ethr =  2.62E-03,  avg # of iterations =  2.4

     total cpu time spent up to now is       19.4 secs

     total energy              =   -3903.36839739 Ry
     estimated scf accuracy    <       0.86261184 Ry

     iteration #  4     ecut=    60.00 Ry     beta= 0.20
     Davidson diagonalization with overlap
     ethr =  2.37E-04,  avg # of iterations =  8.6

     total cpu time spent up to now is       25.8 secs

     total energy              =   -3903.39289025 Ry
     estimated scf accuracy    <       0.52146252 Ry

     iteration #  5     ecut=    60.00 Ry     beta= 0.20
     Davidson diagonalization with overlap
     ethr =  1.43E-04,  avg # of iterations =  1.5

     total cpu time spent up to now is       30.7 secs

     total energy              =   -3903.33032454 Ry
     estimated scf accuracy    <       0.33600767 Ry

     iteration #  6     ecut=    60.00 Ry     beta= 0.20
     Davidson diagonalization with overlap
     ethr =  9.23E-05,  avg # of iterations =  2.0

     total cpu time spent up to now is       35.7 secs

     total energy              =   -3903.32252339 Ry
     estimated scf accuracy    <       0.09344555 Ry

     iteration #  7     ecut=    60.00 Ry     beta= 0.20
     Davidson diagonalization with overlap
     ethr =  2.57E-05,  avg # of iterations = 14.4

     total cpu time spent up to now is       44.7 secs

     total energy              =   -3903.32845881 Ry
     estimated scf accuracy    <       0.02102748 Ry

     iteration #  8     ecut=    60.00 Ry     beta= 0.20
     Davidson diagonalization with overlap
     ethr =  5.78E-06,  avg # of iterations =  9.6

     total cpu time spent up to now is       51.2 secs

     total energy              =   -3903.32730032 Ry
     estimated scf accuracy    <       0.00908664 Ry

     iteration #  9     ecut=    60.00 Ry     beta= 0.20
     Davidson diagonalization with overlap
     ethr =  2.50E-06,  avg # of iterations = 14.9

     total cpu time spent up to now is       61.0 secs

     total energy              =   -3903.32786952 Ry
     estimated scf accuracy    <       0.00263587 Ry

     iteration # 10     ecut=    60.00 Ry     beta= 0.20
     Davidson diagonalization with overlap
     ethr =  7.24E-07,  avg # of iterations =  4.2

     total cpu time spent up to now is       67.9 secs

     total energy              =   -3903.32794083 Ry
     estimated scf accuracy    <       0.00235328 Ry

     iteration # 11     ecut=    60.00 Ry     beta= 0.20
     Davidson diagonalization with overlap
     ethr =  6.47E-07,  avg # of iterations =  2.1

     total cpu time spent up to now is       73.8 secs

     total energy              =   -3903.32828681 Ry
     estimated scf accuracy    <       0.00020611 Ry

     iteration # 12     ecut=    60.00 Ry     beta= 0.20
     Davidson diagonalization with overlap
     ethr =  5.66E-08,  avg # of iterations =  4.4

     total cpu time spent up to now is       80.5 secs

     total energy              =   -3903.32830252 Ry
     estimated scf accuracy    <       0.00004914 Ry

     iteration # 13     ecut=    60.00 Ry     beta= 0.20
     Davidson diagonalization with overlap
     ethr =  1.35E-08,  avg # of iterations =  3.5

     total cpu time spent up to now is       86.8 secs

     total energy              =   -3903.32830112 Ry
     estimated scf accuracy    <       0.00002371 Ry

     iteration # 14     ecut=    60.00 Ry     beta= 0.20
     Davidson diagonalization with overlap
     ethr =  6.51E-09,  avg # of iterations =  3.4

     total cpu time spent up to now is       92.9 secs

     total energy              =   -3903.32830081 Ry
     estimated scf accuracy    <       0.00000855 Ry

     iteration # 15     ecut=    60.00 Ry     beta= 0.20
     Davidson diagonalization with overlap
     ethr =  2.35E-09,  avg # of iterations =  3.0

     total cpu time spent up to now is       99.5 secs

     total energy              =   -3903.32830134 Ry
     estimated scf accuracy    <       0.00000495 Ry

     iteration # 16     ecut=    60.00 Ry     beta= 0.20
     Davidson diagonalization with overlap
     ethr =  1.36E-09,  avg # of iterations =  1.1

     total cpu time spent up to now is      104.2 secs

     total energy              =   -3903.32830029 Ry
     estimated scf accuracy    <       0.00000214 Ry

     iteration # 17     ecut=    60.00 Ry     beta= 0.20
     Davidson diagonalization with overlap
     ethr =  5.88E-10,  avg # of iterations =  3.4

     total cpu time spent up to now is      110.6 secs

     End of self-consistent calculation

          k = 0.0000 0.0000 0.0000 ( 29855 PWs)   bands (ev):

   -43.2495 -43.1256 -42.8564 -42.7571 -42.6906 -42.6643 -42.6145 -42.6109
   -42.5675 -42.5609 -42.5269 -42.5044 -19.6825 -19.6659 -19.5800 -19.5599
   -19.5418 -19.4042 -19.3600 -19.3331 -19.3095 -19.2736 -19.2414 -19.2042
   -19.1894 -19.1332 -19.1141 -19.0878 -19.0744 -19.0705 -19.0641 -19.0511
   -19.0344 -19.0233 -18.9893 -18.9694 -18.9421 -18.9178 -18.9025 -18.8986
   -18.8812 -18.8533 -18.8477 -18.8305 -18.8034 -18.7700 -18.7658 -18.7394
    -3.9427  -2.6333  -2.5513  -2.5151  -2.4312  -2.3531  -2.2879  -1.5681
    -1.5005  -1.4538  -1.4004  -1.3407  -1.3308  -1.3016  -1.2807  -1.1912
    -1.1561  -1.1349  -1.0078  -0.8426  -0.8125  -0.7669  -0.7459  -0.7150
    -0.6570  -0.6141  -0.5073  -0.4693  -0.4476  -0.4024  -0.3348  -0.3050
     4.7231   4.9535   5.1369   5.2404   6.3039   6.3091   6.3879   6.5305
     6.5695   6.6027   6.8039   6.8699   6.9097   6.9207   6.9709   7.1013
     7.2565   7.3798   7.4644   7.4918   7.5220   7.5837   7.5986   7.6903
     7.7269   7.8188   7.8705   7.9115   8.1191   8.1589   8.1896   8.2559
     8.3891   8.4688   8.6444   8.7112   8.7722   8.7974   8.8287   8.8886
     8.9602   9.0109   9.0329   9.0710   9.1076   9.1802   9.2140   9.2330
     9.2794   9.4125   9.4537   9.5097   9.5919   9.6401   9.6837   9.9343
     9.9673  10.0418  10.1599  10.1901  10.2475  10.2654  10.3267  10.3474
    10.3921  10.4152  10.4692  10.4942  10.5478  10.6388  10.7083  10.7389
    10.8729  10.9601  10.9641  11.0136  11.0253  11.0379  11.1211  11.1375
    11.1921  11.2281  11.2592  11.3077  11.3171  11.3811  11.3848  11.4258
    11.4526  11.5009  11.6471  11.7080  11.7901  12.6895  12.7105  12.7292
    13.2758  13.5978  13.6496  14.2963  14.4119  14.4348  14.8168  14.8694
    15.2285  15.6010  15.6546  15.7187  16.1416  16.2246  16.2556  16.2956
    16.3534  16.4699  16.5055  16.5408  16.6023  16.6586  16.7108  16.7395
    16.7808  16.8018  16.8255  16.8503  16.8930  16.9349  16.9525  16.9966
    17.0154  17.0347  17.1152  17.1378  17.1818  17.2166  17.2541  17.3155
    17.3646  17.4007

          k = 0.0000 0.0000-0.5000 ( 29958 PWs)   bands (ev):

   -43.2495 -43.1256 -42.8564 -42.7572 -42.6906 -42.6644 -42.6145 -42.6109
   -42.5675 -42.5609 -42.5269 -42.5045 -19.6825 -19.6660 -19.5800 -19.5599
   -19.5418 -19.4028 -19.3600 -19.3333 -19.3101 -19.2733 -19.2414 -19.2041
   -19.1894 -19.1333 -19.1138 -19.0883 -19.0750 -19.0706 -19.0637 -19.0513
   -19.0355 -19.0232 -18.9892 -18.9694 -18.9421 -18.9178 -18.9026 -18.8994
   -18.8811 -18.8530 -18.8475 -18.8301 -18.8033 -18.7699 -18.7658 -18.7393
    -3.7216  -3.2190  -2.3984  -2.3629  -2.3240  -2.2316  -2.0285  -1.9690
    -1.7742  -1.6867  -1.5017  -1.4242  -1.4044  -1.3803  -1.2404  -1.1315
    -0.9460  -0.9088  -0.8469  -0.8167  -0.7892  -0.7430  -0.6770  -0.6415
    -0.6326  -0.5600  -0.5324  -0.4886  -0.4604  -0.4176  -0.3935  -0.3557
     5.2490   5.3446   5.5893   5.6519   5.7424   6.0062   6.1486   6.1920
     6.3218   6.3282   6.6342   6.7114   6.7649   6.8906   7.0227   7.1524
     7.1729   7.2608   7.3609   7.3774   7.4425   7.5223   7.6020   7.6943
     7.7109   7.7700   7.8671   7.8993   7.9674   8.1025   8.1671   8.2295
     8.3175   8.3698   8.4877   8.5981   8.6751   8.7913   8.9936   9.0582
     9.1109   9.1886   9.2011   9.2326   9.3108   9.3524   9.4477   9.5536
     9.6121   9.7885   9.8142   9.8597   9.8949   9.9500   9.9762  10.0253
    10.0595  10.0890  10.1146  10.1446  10.1623  10.2043  10.2376  10.3020
    10.3394  10.3621  10.4235  10.4342  10.4756  10.5339  10.5912  10.6035
    10.6281  10.6525  10.7101  10.7613  10.7850  10.8565  10.9642  11.0682
    11.1525  11.2415  11.2676  11.2877  11.3309  11.3487  11.3855  11.4123
    11.4586  11.5814  11.6123  11.6473  11.9368  11.9761  12.3575  12.3956
    13.2761  14.2051  14.4414  14.4985  14.9925  15.0366  15.1674  15.1936
    15.3741  15.3960  15.5201  15.5710  15.6798  15.7891  16.0465  16.0823
    16.2762  16.3208  16.3331  16.4490  16.4882  16.5130  16.6154  16.6323
    16.6601  16.6873  16.7367  16.7969  16.8690  16.8967  16.9452  16.9751
    17.0120  17.0551  17.1167  17.2550  17.3309  17.3719  17.5558  17.5657
    17.5931  17.7679

          k = 0.0000-0.5000-0.5000 ( 29944 PWs)   bands (ev):

   -43.2495 -43.1256 -42.8563 -42.7573 -42.6903 -42.6646 -42.6154 -42.6096
   -42.5709 -42.5576 -42.5271 -42.5047 -19.6825 -19.6659 -19.5799 -19.5599
   -19.5418 -19.4001 -19.3508 -19.3313 -19.2945 -19.2787 -19.2472 -19.2244
   -19.1869 -19.1585 -19.1279 -19.1019 -19.0815 -19.0682 -19.0568 -19.0376
   -19.0207 -18.9976 -18.9766 -18.9716 -18.9470 -18.9307 -18.9113 -18.8873
   -18.8707 -18.8594 -18.8335 -18.8226 -18.8161 -18.7719 -18.7684 -18.7484
    -3.3798  -3.2994  -2.9051  -2.7066  -2.1196  -2.0005  -1.9930  -1.9662
    -1.6944  -1.6474  -1.5617  -1.5002  -1.2742  -1.1799  -1.1312  -1.0899
    -1.0490  -1.0315  -0.9956  -0.9476  -0.7914  -0.7681  -0.7142  -0.6584
    -0.6105  -0.5604  -0.5360  -0.5075  -0.4185  -0.3854  -0.3319  -0.2680
     5.3756   5.5497   5.7412   5.7867   5.8200   6.1645   6.2902   6.4157
     6.4377   6.4727   6.5577   6.5831   6.6371   6.6845   6.8065   6.8926
     6.9219   7.0471   7.0647   7.1383   7.1969   7.3804   7.4434   7.5083
     7.5999   7.7132   7.8771   7.9911   8.0165   8.1005   8.2690   8.3440
     8.4022   8.6162   8.7491   8.8417   8.9033   8.9610   9.0299   9.1078
     9.1740   9.2631   9.2876   9.2961   9.3618   9.3986   9.4736   9.5086
     9.5260   9.5748   9.6656   9.6963   9.7709   9.7813   9.8764   9.9220
     9.9625  10.0757  10.1120  10.1802  10.2131  10.2593  10.2874  10.3056
    10.3829  10.4177  10.4848  10.5408  10.5784  10.6020  10.6207  10.6404
    10.6911  10.7170  10.7857  10.9091  10.9397  11.0092  11.0348  11.0481
    11.0602  11.1003  11.1214  11.1948  11.2120  11.2701  11.3241  11.3709
    11.4304  11.5195  11.6275  11.7006  11.8476  11.8563  12.1069  12.1425
    14.4165  14.5507  14.6715  14.7356  14.7737  14.9250  15.2446  15.2763
    15.3087  15.3677  15.4061  15.5630  15.6377  15.7308  15.7936  15.8246
    15.8597  15.9784  16.0690  16.2002  16.3356  16.4321  16.5314  16.5755
    16.5821  16.6392  16.6834  16.7105  16.8086  16.8801  16.9419  16.9900
    17.0451  17.0982  17.1791  17.3198  17.3881  17.5055  17.8170  17.9394
    17.9713  18.1412

          k =-0.5000-0.5000-0.5000 ( 29992 PWs)   bands (ev):

   -43.2496 -43.1256 -42.8563 -42.7573 -42.6897 -42.6653 -42.6151 -42.6105
   -42.5697 -42.5575 -42.5275 -42.5047 -19.6825 -19.6658 -19.5800 -19.5600
   -19.5416 -19.4019 -19.3486 -19.3301 -19.3105 -19.2756 -19.2380 -19.2102
   -19.1911 -19.1385 -19.1247 -19.1023 -19.0826 -19.0771 -19.0598 -19.0469
   -19.0309 -19.0119 -18.9820 -18.9599 -18.9534 -18.9217 -18.9024 -18.8980
   -18.8634 -18.8521 -18.8411 -18.8348 -18.8073 -18.7802 -18.7676 -18.7362
    -3.0870  -2.9956  -2.9359  -2.8630  -2.5942  -2.4479  -2.3623  -2.2272
    -1.3128  -1.2995  -1.2657  -1.1686  -1.0922  -1.0597  -1.0185  -1.0082
    -0.9692  -0.9562  -0.9220  -0.8837  -0.8710  -0.8219  -0.7807  -0.7714
    -0.7075  -0.6854  -0.6373  -0.5906  -0.5494  -0.5371  -0.3518  -0.3052
     5.7209   5.7678   5.8549   5.9332   6.0032   6.0962   6.1188   6.1474
     6.2207   6.3106   6.3653   6.4615   6.5373   6.5557   6.6878   6.7744
     6.8952   7.0058   7.0758   7.1982   7.3262   7.3463   7.4845   7.7543
     8.1071   8.1432   8.2057   8.2996   8.3481   8.3612   8.4500   8.4981
     8.5580   8.6118   8.6871   8.7545   8.7987   8.8562   8.8878   8.9339
     8.9680   8.9998   9.0300   9.1255   9.1390   9.1699   9.2173   9.2308
     9.3574   9.3899   9.4540   9.5285   9.5451   9.6361   9.7260   9.8707
     9.8895   9.9783  10.0084  10.0746  10.0935  10.1738  10.2535  10.2907
    10.3079  10.4519  10.4655  10.5011  10.5270  10.5992  10.6434  10.7106
    10.7646  10.8068  10.8365  10.9200  11.0421  11.1147  11.1372  11.1751
    11.1984  11.3169  11.3381  11.3813  11.4244  11.5517  11.5854  11.5972
    11.6117  11.6969  11.7519  11.7979  11.8197  11.9257  11.9358  11.9874
    14.7599  14.8243  14.8893  14.9249  14.9754  15.0388  15.0868  15.1413
    15.1588  15.1904  15.2850  15.3963  15.4351  15.5863  15.6629  15.6971
    15.7402  15.7860  15.8529  15.9971  16.0311  16.1778  16.2310  16.2659
    16.3047  16.4548  16.6654  16.7030  16.8079  16.8618  16.9188  16.9375
    17.0967  17.1564  17.4211  17.4263  18.1746  18.1933  18.2459  18.4235
    18.4461  18.4933

          k =-0.5000 0.0000 0.0000 ( 29958 PWs)   bands (ev):

   -43.2495 -43.1256 -42.8564 -42.7571 -42.6901 -42.6651 -42.6168 -42.6087
   -42.5672 -42.5606 -42.5274 -42.5045 -19.6825 -19.6659 -19.5799 -19.5599
   -19.5417 -19.4018 -19.3565 -19.3272 -19.3026 -19.2607 -19.2445 -19.2200
   -19.1910 -19.1562 -19.1199 -19.1151 -19.0892 -19.0774 -19.0530 -19.0419
   -19.0334 -19.0061 -18.9676 -18.9548 -18.9410 -18.9190 -18.9041 -18.8935
   -18.8816 -18.8539 -18.8509 -18.8148 -18.8079 -18.7740 -18.7693 -18.7517
    -3.5966  -3.4775  -2.3414  -2.2892  -2.2277  -2.1860  -2.0308  -1.9602
    -1.8879  -1.8378  -1.4244  -1.3751  -1.2034  -1.1658  -1.1173  -1.1041
    -1.0234  -0.9657  -0.9165  -0.8632  -0.8246  -0.7716  -0.7166  -0.6903
    -0.6409  -0.6027  -0.5989  -0.5602  -0.4933  -0.4728  -0.4105  -0.2945
     5.3809   5.4278   5.5214   5.6111   5.6508   5.8001   6.0731   6.1912
     6.4858   6.5440   6.6448   6.6844   6.7578   6.7875   6.8663   6.9460
     7.0129   7.0899   7.2200   7.3272   7.4311   7.5873   7.6484   7.7789
     7.8050   7.8476   7.9789   8.0102   8.1169   8.1523   8.2170   8.2985
     8.3761   8.4213   8.5602   8.6172   8.6624   8.6910   9.1507   9.1750
     9.2841   9.3363   9.3965   9.4319   9.4685   9.5050   9.5981   9.7620
     9.8050   9.8450   9.8722   9.8963   9.9189   9.9376   9.9679  10.0014
    10.0378  10.0645  10.0969  10.1033  10.1047  10.1855  10.2178  10.2389
    10.2656  10.3517  10.4037  10.4222  10.4816  10.5453  10.5737  10.6015
    10.6208  10.6998  10.7247  10.7311  10.8151  10.8377  10.8733  10.9158
    10.9458  10.9866  10.9900  11.1009  11.1263  11.2023  11.2221  11.2587
    11.3184  11.4225  11.5404  11.6160  12.0867  12.1161  12.1709  12.2215
    13.7445  14.0620  14.5991  14.6245  14.6862  14.9350  15.0985  15.2012
    15.3141  15.3644  15.5013  15.6024  15.6331  15.7297  15.8677  15.9337
    16.1415  16.2257  16.3224  16.3946  16.4642  16.5151  16.5392  16.5919
    16.7124  16.8304  16.8421  16.8522  16.9357  16.9385  17.0231  17.0559
    17.1035  17.1608  17.1717  17.2273  17.2708  17.3175  17.4209  17.5361
    17.7511  17.8566

          k = 0.0000-0.5000 0.0000 ( 29958 PWs)   bands (ev):

   -43.2495 -43.1256 -42.8563 -42.7573 -42.6903 -42.6646 -42.6154 -42.6096
   -42.5709 -42.5576 -42.5271 -42.5047 -19.6825 -19.6659 -19.5798 -19.5598
   -19.5418 -19.4016 -19.3507 -19.3313 -19.2944 -19.2789 -19.2472 -19.2237
   -19.1871 -19.1580 -19.1278 -19.1025 -19.0814 -19.0674 -19.0568 -19.0375
   -19.0208 -18.9976 -18.9765 -18.9711 -18.9465 -18.9303 -18.9113 -18.8872
   -18.8711 -18.8598 -18.8339 -18.8228 -18.8159 -18.7720 -18.7686 -18.7486
    -3.5917  -3.4873  -2.3612  -2.2229  -2.1904  -2.1567  -2.0580  -1.9795
    -1.9326  -1.8431  -1.4535  -1.4098  -1.2332  -1.1377  -1.1213  -1.0712
    -1.0096  -0.9949  -0.9535  -0.8561  -0.8535  -0.8086  -0.7776  -0.6983
    -0.6382  -0.6013  -0.5681  -0.5370  -0.4787  -0.4271  -0.3248  -0.2738
     5.2163   5.4791   5.5772   5.6138   5.7735   5.8050   6.1442   6.2239
     6.5399   6.5801   6.6831   6.7541   6.7588   6.7901   6.8716   6.9205
     7.0126   7.0968   7.3022   7.3113   7.4331   7.5133   7.6006   7.6120
     7.6779   7.8587   7.9131   7.9488   8.0411   8.1508   8.2513   8.3007
     8.3640   8.4580   8.5480   8.5822   8.6493   8.8233   9.1439   9.1599
     9.2368   9.2482   9.2844   9.3074   9.3982   9.4041   9.5452   9.5665
     9.6358   9.8031   9.8363   9.8482   9.8884   9.9296   9.9662   9.9942
    10.0448  10.0823  10.0924  10.1145  10.1598  10.1971  10.2141  10.2688
    10.3183  10.3245  10.3918  10.4775  10.5222  10.5925  10.6199  10.6242
    10.6546  10.7295  10.7383  10.7905  10.8093  10.8755  10.9063  10.9545
    10.9919  11.0751  11.1536  11.1595  11.1987  11.2786  11.3039  11.3278
    11.3964  11.4514  11.5970  11.6314  12.0653  12.0935  12.2278  12.2406
    13.7292  14.0591  14.4458  14.6731  14.7023  14.8845  15.1889  15.2507
    15.2840  15.3446  15.4247  15.5301  15.7367  15.8331  15.9991  16.0462
    16.1933  16.2443  16.2772  16.3831  16.4497  16.5783  16.5917  16.6572
    16.6941  16.7066  16.7907  16.8484  16.9359  16.9469  16.9941  17.0126
    17.0791  17.1194  17.1507  17.1953  17.3055  17.3812  17.3952  17.5262
    17.5372  17.6705

          k =-0.5000 0.0000 0.5000 ( 29944 PWs)   bands (ev):

   -43.2495 -43.1256 -42.8564 -42.7571 -42.6900 -42.6651 -42.6168 -42.6087
   -42.5671 -42.5606 -42.5274 -42.5045 -19.6825 -19.6659 -19.5799 -19.5599
   -19.5417 -19.4002 -19.3568 -19.3272 -19.3026 -19.2607 -19.2448 -19.2200
   -19.1912 -19.1564 -19.1199 -19.1150 -19.0890 -19.0783 -19.0529 -19.0422
   -19.0336 -19.0058 -18.9675 -18.9551 -18.9419 -18.9191 -18.9042 -18.8937
   -18.8807 -18.8538 -18.8509 -18.8145 -18.8077 -18.7740 -18.7692 -18.7515
    -3.3995  -3.2677  -2.8624  -2.7839  -2.0927  -2.0585  -1.9868  -1.9622
    -1.6618  -1.6296  -1.6071  -1.4990  -1.2573  -1.1355  -1.0935  -1.0767
    -1.0364  -1.0006  -0.9878  -0.9167  -0.7918  -0.7248  -0.6988  -0.6500
    -0.6338  -0.6011  -0.5662  -0.4984  -0.4461  -0.4188  -0.3839  -0.3148
     5.3912   5.4881   5.6584   5.9720   6.0258   6.0845   6.2123   6.2900
     6.3958   6.4392   6.4898   6.5043   6.5153   6.5675   6.7832   6.8725
     6.9057   7.0332   7.1812   7.2023   7.2784   7.3498   7.5216   7.5877
     7.6428   7.6935   7.8105   7.9012   8.0474   8.1593   8.3833   8.4187
     8.5948   8.6975   8.7934   8.8581   8.9769   8.9988   9.0592   9.0747
     9.1177   9.1684   9.2343   9.3578   9.4893   9.5008   9.5425   9.6344
     9.6721   9.6879   9.7127   9.7259   9.7418   9.8225   9.9092   9.9616
    10.0534  10.0804  10.1244  10.1578  10.1743  10.2210  10.2575  10.2790
    10.3160  10.3531  10.3824  10.4347  10.5121  10.5345  10.5677  10.6763
    10.6938  10.7632  10.7736  10.8451  10.8666  10.9016  10.9544  11.0226
    11.0317  11.0518  11.1071  11.1578  11.1758  11.2135  11.2894  11.3247
    11.4431  11.4572  11.6653  11.6987  11.7489  11.7998  12.0487  12.1886
    14.5865  14.6074  14.6651  14.6784  14.7814  14.9333  15.1488  15.1743
    15.2513  15.4142  15.5202  15.5551  15.5822  15.7107  15.7721  15.8330
    15.8882  15.9074  16.0130  16.0325  16.3137  16.3450  16.4990  16.5626
    16.6323  16.6404  16.6820  16.7777  16.8250  16.9147  16.9585  17.0638
    17.0917  17.1254  17.1742  17.2665  17.4208  17.5626  17.7725  18.0207
    18.0575  18.1266

          k =-0.5000 0.5000 0.0000 ( 29944 PWs)   bands (ev):

   -43.2495 -43.1256 -42.8563 -42.7573 -42.6897 -42.6653 -42.6151 -42.6105
   -42.5697 -42.5575 -42.5276 -42.5047 -19.6825 -19.6659 -19.5800 -19.5599
   -19.5417 -19.4034 -19.3486 -19.3302 -19.3105 -19.2751 -19.2379 -19.2101
   -19.1910 -19.1380 -19.1247 -19.1023 -19.0825 -19.0775 -19.0601 -19.0455
   -19.0305 -19.0120 -18.9818 -18.9599 -18.9534 -18.9214 -18.9023 -18.8975
   -18.8641 -18.8521 -18.8411 -18.8353 -18.8072 -18.7805 -18.7676 -18.7363
    -3.2752  -3.1616  -3.1344  -3.0354  -1.9242  -1.8520  -1.7863  -1.7514
    -1.6853  -1.6478  -1.5867  -1.4794  -1.2820  -1.2749  -1.2047  -1.0849
    -1.0673  -1.0383  -1.0235  -0.9850  -0.8284  -0.7990  -0.7118  -0.6991
    -0.6561  -0.5992  -0.5301  -0.4773  -0.4714  -0.4506  -0.3374  -0.2447
     5.4112   5.5156   5.7150   5.8046   5.8492   5.9427   6.0482   6.0819
     6.5075   6.5123   6.6776   6.7123   6.8183   6.8286   6.9050   6.9585
     6.9869   7.0933   7.1471   7.1806   7.2132   7.2425   7.3568   7.4805
     7.5462   7.6259   7.7267   7.8764   8.0825   8.1157   8.2490   8.3199
     8.6522   8.7356   8.7966   8.8358   8.9826   9.0237   9.0663   9.1534
     9.2029   9.2375   9.4086   9.4766   9.5538   9.6140   9.6307   9.6986
     9.7351   9.7726   9.7915   9.8247   9.8431   9.8764   9.9632   9.9963
    10.0159  10.0704  10.1013  10.1224  10.1677  10.2065  10.2400  10.2583
    10.2748  10.3072  10.3482  10.3784  10.4391  10.4631  10.4990  10.5260
    10.5471  10.5863  10.6124  10.6367  10.8121  10.8847  10.9747  10.9926
    11.0419  11.0621  11.1319  11.1569  11.1865  11.2542  11.3275  11.3514
    11.4338  11.4995  11.5538  11.7264  11.8163  11.9019  11.9700  12.0471
    14.7040  14.7339  14.8668  14.9263  14.9465  14.9828  15.0113  15.0818
    15.1223  15.1737  15.2410  15.3936  15.4886  15.6054  15.8287  15.9615
    15.9928  16.0701  16.1079  16.1563  16.1960  16.2161  16.2772  16.4459
    16.5375  16.6618  16.7383  16.8387  16.8774  16.8928  16.9715  17.0234
    17.0747  17.1667  17.3870  17.3913  17.4878  17.7600  17.9582  17.9734
    18.0121  18.0497

     the Fermi energy is    15.0099 ev

!    total energy              =   -3903.32830045 Ry
     total all-electron energy =    -33714.820366 Ry
     estimated scf accuracy    <       0.00000085 Ry
     smearing contrib. (-TS)   =      -0.00279124 Ry
     internal energy E=F+TS    =   -3903.32550921 Ry

     The total energy is F=E-TS. E is the sum of the following terms:
     one-electron contribution =    -693.48447407 Ry
     hartree contribution      =     593.04569484 Ry
     xc contribution           =    -466.32847718 Ry
     ewald contribution        =   -1604.29732400 Ry
     one-center paw contrib.   =   -1732.26092881 Ry

     convergence has been achieved in  17 iterations

     Forces acting on atoms (cartesian axes, Ry/au):

     atom    1 type  1   force =     0.00269603   -0.00000217    0.00358019
     atom    2 type  2   force =    -0.00498340    0.00252998   -0.06220838
     atom    3 type  3   force =    -0.03805735   -0.02413731    0.07086193
     atom    4 type  2   force =     0.01083732    0.07525586   -0.01051026
     atom    5 type  3   force =    -0.00551747   -0.00746327    0.04113928
     atom    6 type  2   force =     0.00005685   -0.00776505   -0.01528486
     atom    7 type  1   force =     0.00388479    0.00138929    0.00210553
     atom    8 type  2   force =     0.00966730   -0.00963608   -0.01213037
     atom    9 type  1   force =    -0.00224887    0.00027732   -0.00403771
     atom   10 type  2   force =    -0.06690403    0.05620102    0.06094047
     atom   11 type  3   force =    -0.02745907    0.03007264   -0.07616781
     atom   12 type  2   force =     0.04797142    0.00334867    0.00700478
     atom   13 type  1   force =     0.00350928   -0.00258014   -0.00091067
     atom   14 type  2   force =     0.00004219   -0.04790607    0.01203067
     atom   15 type  1   force =    -0.00043880   -0.00183892   -0.00365667
     atom   16 type  2   force =     0.06979741   -0.07483183    0.01037392
     atom   17 type  1   force =     0.00544902   -0.00085686    0.00638015
     atom   18 type  2   force =    -0.00095120   -0.00131729   -0.00511764
     atom   19 type  3   force =     0.00374029    0.02258245    0.02958636
     atom   20 type  2   force =     0.07040902   -0.06763142   -0.05191733
     atom   21 type  1   force =    -0.00175956    0.00069998   -0.00217207
     atom   22 type  2   force =     0.00041553    0.00812983   -0.07299873
     atom   23 type  1   force =    -0.00094174   -0.00052393    0.00240428
     atom   24 type  2   force =     0.04163255    0.00623741   -0.06707261
     atom   25 type  3   force =    -0.00210557   -0.02509121   -0.02689291
     atom   26 type  2   force =    -0.00267152   -0.05838855    0.00469749
     atom   27 type  1   force =     0.00206877    0.00110983   -0.00612788
     atom   28 type  2   force =     0.00596787   -0.00420175    0.05677219
     atom   29 type  1   force =     0.00175297    0.00146380    0.00293764
     atom   30 type  2   force =    -0.00026466    0.05288107    0.07088450
     atom   31 type  3   force =    -0.00984935   -0.00167355   -0.04287901
     atom   32 type  2   force =    -0.05402644    0.07204534    0.06473887
     atom   33 type  1   force =    -0.00346166    0.00515724    0.00287860
     atom   34 type  2   force =     0.00504863    0.04400227   -0.06906540
     atom   35 type  3   force =     0.03625872   -0.05087525    0.07127024
     atom   36 type  2   force =    -0.01286168    0.07843822   -0.06637579
     atom   37 type  3   force =     0.00542143    0.02194568    0.02569724
     atom   38 type  2   force =    -0.00037592   -0.06578433   -0.06957649
     atom   39 type  1   force =    -0.00382291   -0.00187125    0.00615861
     atom   40 type  2   force =    -0.00568173    0.00204523   -0.06323054
     atom   41 type  3   force =     0.00044237    0.03228616   -0.06979567
     atom   42 type  2   force =     0.06615856   -0.05744621    0.06709512
     atom   43 type  1   force =     0.00100935   -0.00283579   -0.00172077
     atom   44 type  2   force =    -0.05036036    0.00663261    0.06951348
     atom   45 type  1   force =    -0.00302644   -0.00020457   -0.00678114
     atom   46 type  2   force =     0.00072335   -0.00679725    0.06752746
     atom   47 type  3   force =     0.00069104   -0.00149487   -0.04609913
     atom   48 type  2   force =    -0.06682679   -0.00011896    0.06379581
     atom   49 type  1   force =    -0.00554673   -0.00460179    0.00251140
     atom   50 type  2   force =     0.00078880   -0.04423820   -0.00801543
     atom   51 type  1   force =    -0.00071191    0.00291919    0.00321584
     atom   52 type  2   force =    -0.06994327   -0.07633326    0.04968625
     atom   53 type  1   force =     0.00158585   -0.00247600    0.00393737
     atom   54 type  2   force =     0.00011059    0.06492413   -0.06021441
     atom   55 type  3   force =     0.02715055    0.02748880    0.05499115
     atom   56 type  2   force =    -0.04170334   -0.00137593   -0.00900903
     atom   57 type  3   force =     0.00274946   -0.03276486   -0.02479932
     atom   58 type  2   force =     0.00240526    0.05942184    0.00710342
     atom   59 type  1   force =    -0.00203210    0.00295040   -0.00201510
     atom   60 type  2   force =    -0.00530822   -0.00756460   -0.04698917
     atom   61 type  1   force =    -0.00164840   -0.00043991   -0.00422142
     atom   62 type  2   force =     0.00009917    0.00630299    0.05871260
     atom   63 type  1   force =     0.00302626    0.00373412   -0.00496927
     atom   64 type  2   force =     0.05792248    0.00059506    0.01243013

     Total force =     0.484813     Total SCF correction =     0.001862


     Computing stress (Cartesian axis) and pressure

          total   stress  (Ry/bohr**3)                   (kbar)     P=       60.45
   0.00037462  -0.00003336  -0.00005634           55.11       -4.91       -8.29
  -0.00003336   0.00038936   0.00000096           -4.91       57.28        0.14
  -0.00005634   0.00000096   0.00046888           -8.29        0.14       68.97


     BFGS Geometry Optimization
     Energy error            =      0.0E+00 Ry
     Gradient error          =      7.8E-02 Ry/Bohr

     number of scf cycles    =   1
     number of bfgs steps    =   0

     energy             new  =   -3903.3283004469 Ry

     new trust radius        =       0.1148370664 bohr
     new conv_thr            =       0.0000010000 Ry


ATOMIC_POSITIONS (angstrom)
Al            0.0014266765       -0.0000011459        0.0018945561
N             2.0642378978        0.0013388059       -0.0329192582
Ti           -0.0201390830        2.0541020838        2.1043735198
N             2.0726098644        2.1066986870        2.0613132095
Ti            2.0639552821       -0.0039493921        2.0886449715
N             0.0000300815       -0.0041090854        2.0587866003
Al            2.0689307437        2.0676101794        0.0011141968
N             0.0051157158        2.0617758060       -0.0064191141
Al           -0.0011900519        0.0001467492        4.1316133365
N             2.0314709137        0.0297402982        4.1659983064
Ti           -0.0145307133        2.0827887579        6.1603187322
N             2.0922603804        2.0686470421        6.2043317679
Al            2.0687320328       -0.0013653519        6.2001430951
N             0.0000223241       -0.0253507990        6.2069913578
Al            2.0666427965        2.0659018878        4.1318149733
N             0.0369351961        2.0272757002        4.1392396409
Al            0.0028834975        4.1332965705        0.0033762308
N             2.0663716446        4.1330529189       -0.0027081393
Ti            0.0019792770        6.2125751162        2.0825314284
N             2.1041338511        6.1648359945        2.0394015332
Al            2.0659438784        4.1341204139        2.0657255912
N             0.0002198908        4.1380521187        2.0282457371
Al            2.0663766541        6.2003477457        0.0012722908
N             0.0220309977        6.2039256967       -0.0354932983
Ti           -0.0011142208        4.1204723053        4.1195188874
N             2.0654612942        4.1028521093        4.1362358058
Al            0.0010947457        6.2012122990        6.1973822642
N             2.0700330627        6.1984015289        6.2306675472
Al            2.0678026321        4.1345246081        6.2021795334
N            -0.0001400539        4.1617334574        6.2381354617
Ti            2.0616629497        6.1997393981        4.1110594058
N            -0.0285895596        6.2387497497        4.1680083322
Al            4.1319181710        0.0027290956        0.0015232880
N             6.2032966215        0.0232849988       -0.0365478367
Ti            4.1529372863        2.0399529759        2.1045895871
N             6.1938188896        2.1083827211        2.0317504450
Ti            6.2034938992        0.0116131514        2.0804733960
N             4.1335510709       -0.0348115705        2.0300567070
Al            6.1986020042        2.0658847775        0.0032589955
N             4.1307433572        2.0679572904       -0.0334601629
Ti            4.1339840896        0.0170851025        4.0968157199
N             6.2356346035       -0.0303992275        4.1692552111
Al            4.1342841230        2.0653743671        6.1997144090
N             6.1739754460        2.0703848267        6.2374099499
Al            6.1990234771       -0.0001082538        6.1970365762
N             4.1341327795       -0.0035969519        6.2363589919
Ti            6.2009906831        2.0660839484        4.1093553918
N             4.0983867866        2.0668120491        4.1675092877
Al            4.1308147945        4.1313148386        0.0013289750
N             6.2010424163        4.1103401503       -0.0042415825
Al            4.1333732760        6.2021697673        2.0685767501
N             6.1636126132        6.1602311769        2.0931678299
Al            6.2014641961        4.1324397584        2.0689585677
N             4.1338085236        4.1681063690        2.0350109042
Ti            6.2149924521        6.2151714489        0.0291000641
N             4.1116815408        6.1998968876       -0.0047673719
Ti            4.1352049539        4.1164115809        4.1206267658
N             6.2018978074        4.1651946855        4.1375089688
Al            4.1326746604        6.2021862820        6.1995586575
N             6.1978160106        6.1966219845        6.1757594039
Al            6.1997527023        4.1335172091        6.1983911184
N             4.1338024807        4.1370854010        6.2316943717
Al            6.2022264281        6.2026010129        4.1311203756
N             4.1644012569        6.2009398923        4.1403277418



     Writing config-only to output data dir ../output/relax_sqs_all_x/tmp_x0625/TiAlN_x0625_relax.save/
     NEW-OLD atomic charge density approx. for the potential

     Check: negative core charge=   -0.000017

     total cpu time spent up to now is      127.8 secs

     Self-consistent Calculation

     iteration #  1     ecut=    60.00 Ry     beta= 0.20
     Davidson diagonalization with overlap
     c_bands:  1 eigenvalues not converged
     c_bands:  1 eigenvalues not converged
     ethr =  1.00E-06,  avg # of iterations = 22.0

     total cpu time spent up to now is      149.6 secs

     total energy              =   -3903.51847624 Ry
     estimated scf accuracy    <       0.12023775 Ry

     iteration #  2     ecut=    60.00 Ry     beta= 0.20
     Davidson diagonalization with overlap
     ethr =  3.30E-05,  avg # of iterations =  1.0

     total cpu time spent up to now is      154.1 secs

     total energy              =   -3903.50287701 Ry
     estimated scf accuracy    <       0.07135680 Ry

     iteration #  3     ecut=    60.00 Ry     beta= 0.20
     Davidson diagonalization with overlap
     ethr =  1.96E-05,  avg # of iterations =  1.5

     total cpu time spent up to now is      159.0 secs

     total energy              =   -3903.49928937 Ry
     estimated scf accuracy    <       0.02732179 Ry

     iteration #  4     ecut=    60.00 Ry     beta= 0.20
     Davidson diagonalization with overlap
     ethr =  7.51E-06,  avg # of iterations =  2.0

     total cpu time spent up to now is      164.2 secs

     total energy              =   -3903.50062763 Ry
     estimated scf accuracy    <       0.00656778 Ry

     iteration #  5     ecut=    60.00 Ry     beta= 0.20
     Davidson diagonalization with overlap
     c_bands:  1 eigenvalues not converged
     ethr =  1.80E-06,  avg # of iterations = 16.1

     total cpu time spent up to now is      173.1 secs

     total energy              =   -3903.50064880 Ry
     estimated scf accuracy    <       0.00254902 Ry

     iteration #  6     ecut=    60.00 Ry     beta= 0.20
     Davidson diagonalization with overlap
     ethr =  7.00E-07,  avg # of iterations =  2.0

     total cpu time spent up to now is      178.2 secs

     total energy              =   -3903.50071688 Ry
     estimated scf accuracy    <       0.00086344 Ry

     iteration #  7     ecut=    60.00 Ry     beta= 0.20
     Davidson diagonalization with overlap
     ethr =  2.37E-07,  avg # of iterations =  2.6

     total cpu time spent up to now is      183.6 secs

     total energy              =   -3903.50076535 Ry
     estimated scf accuracy    <       0.00026551 Ry

     iteration #  8     ecut=    60.00 Ry     beta= 0.20
     Davidson diagonalization with overlap
     ethr =  7.29E-08,  avg # of iterations =  4.1

     total cpu time spent up to now is      189.1 secs

     total energy              =   -3903.50074722 Ry
     estimated scf accuracy    <       0.00015763 Ry

     iteration #  9     ecut=    60.00 Ry     beta= 0.20
     Davidson diagonalization with overlap
     ethr =  4.33E-08,  avg # of iterations =  2.4

     total cpu time spent up to now is      195.2 secs

     total energy              =   -3903.50075818 Ry
     estimated scf accuracy    <       0.00005341 Ry

     iteration # 10     ecut=    60.00 Ry     beta= 0.20
     Davidson diagonalization with overlap
     ethr =  1.47E-08,  avg # of iterations =  5.1

     total cpu time spent up to now is      201.0 secs

     total energy              =   -3903.50075950 Ry
     estimated scf accuracy    <       0.00001114 Ry

     iteration # 11     ecut=    60.00 Ry     beta= 0.20
     Davidson diagonalization with overlap
     ethr =  3.06E-09,  avg # of iterations =  5.5

     total cpu time spent up to now is      208.2 secs

     total energy              =   -3903.50076106 Ry
     estimated scf accuracy    <       0.00000315 Ry

     iteration # 12     ecut=    60.00 Ry     beta= 0.20
     Davidson diagonalization with overlap
     ethr =  8.66E-10,  avg # of iterations =  2.4

     total cpu time spent up to now is      213.8 secs

     End of self-consistent calculation

          k = 0.0000 0.0000 0.0000 ( 29855 PWs)   bands (ev):

   -43.5172 -43.3039 -43.0923 -43.0093 -42.9164 -42.8203 -42.8070 -42.7832
   -42.7746 -42.7527 -42.7118 -42.6613 -19.9262 -19.8827 -19.7944 -19.7417
   -19.7034 -19.5817 -19.5722 -19.5369 -19.5072 -19.4824 -19.4401 -19.4202
   -19.3827 -19.3407 -19.3048 -19.2969 -19.2771 -19.2626 -19.2543 -19.2466
   -19.2157 -19.2067 -19.1629 -19.1426 -19.1114 -19.0839 -19.0722 -19.0697
   -19.0396 -19.0210 -19.0156 -18.9871 -18.9569 -18.9438 -18.9234 -18.8763
    -3.9410  -2.6533  -2.5696  -2.5331  -2.4395  -2.4078  -2.3353  -1.5363
    -1.5250  -1.4698  -1.3994  -1.3500  -1.3211  -1.3096  -1.2511  -1.2284
    -1.1945  -1.1862  -1.0701  -0.9193  -0.8860  -0.8510  -0.8078  -0.7843
    -0.7491  -0.7225  -0.5684  -0.4670  -0.4025  -0.3739  -0.3079  -0.2604
     4.7765   5.0146   5.1770   5.3347   6.3570   6.3709   6.4519   6.5245
     6.5869   6.6185   6.8002   6.8579   6.8945   6.9444   7.0434   7.1654
     7.2791   7.3756   7.4484   7.4938   7.5564   7.5724   7.6547   7.6634
     7.7691   7.8273   7.8535   7.8916   8.0525   8.0822   8.1503   8.2524
     8.3579   8.4787   8.5428   8.5936   8.6884   8.7548   8.7916   8.8690
     8.9536   8.9687   9.0468   9.0712   9.0934   9.1293   9.1839   9.2268
     9.2774   9.3816   9.4425   9.4889   9.5374   9.6184   9.7060   9.9091
    10.0050  10.0440  10.1768  10.1902  10.2244  10.2658  10.3436  10.3829
    10.4124  10.4722  10.4869  10.5341  10.5605  10.6549  10.6739  10.6880
    10.8758  10.9693  10.9994  11.0938  11.1153  11.1406  11.1630  11.1883
    11.2420  11.2674  11.2878  11.3442  11.3637  11.4200  11.4697  11.4970
    11.5440  11.5761  11.6334  11.6660  11.6895  12.6677  12.6706  12.6903
    12.9373  13.3145  13.3415  14.0689  14.1387  14.1530  14.5285  14.6000
    15.0815  15.3034  15.4006  15.5192  15.8993  15.9833  16.0297  16.0587
    16.1231  16.2108  16.3188  16.3623  16.4075  16.4747  16.5127  16.5639
    16.5790  16.6311  16.6412  16.6982  16.7319  16.7865  16.8603  16.8900
    16.9176  16.9221  16.9772  17.0014  17.0371  17.0579  17.0806  17.1524
    17.1966  17.2766

          k = 0.0000 0.0000-0.5000 ( 29958 PWs)   bands (ev):

   -43.5172 -43.3039 -43.0924 -43.0094 -42.9164 -42.8203 -42.8070 -42.7833
   -42.7746 -42.7528 -42.7118 -42.6614 -19.9263 -19.8827 -19.7945 -19.7417
   -19.7034 -19.5806 -19.5721 -19.5368 -19.5078 -19.4823 -19.4400 -19.4202
   -19.3826 -19.3407 -19.3048 -19.2969 -19.2771 -19.2626 -19.2543 -19.2473
   -19.2165 -19.2069 -19.1628 -19.1426 -19.1114 -19.0839 -19.0725 -19.0706
   -19.0394 -19.0208 -19.0155 -18.9865 -18.9570 -18.9438 -18.9235 -18.8760
    -3.6884  -3.3077  -2.4073  -2.3549  -2.2986  -2.1877  -2.1423  -2.0356
    -1.8222  -1.7263  -1.5631  -1.3810  -1.3426  -1.3177  -1.1801  -1.1214
    -1.0534  -1.0357  -0.9606  -0.9327  -0.9121  -0.8149  -0.7920  -0.6925
    -0.6223  -0.5835  -0.5393  -0.5167  -0.4843  -0.3843  -0.3329  -0.2894
     5.3338   5.4458   5.6173   5.7278   5.8152   5.9370   6.1032   6.1724
     6.3796   6.3956   6.6579   6.7202   6.7611   6.9145   7.0781   7.1696
     7.1976   7.2668   7.3556   7.4112   7.4454   7.5787   7.6435   7.7152
     7.7571   7.7599   7.8882   7.9355   7.9795   8.0300   8.0919   8.2326
     8.2563   8.2994   8.4109   8.4969   8.6022   8.7268   9.0478   9.1020
     9.1122   9.1599   9.1920   9.2042   9.2700   9.3051   9.3981   9.5279
     9.6651   9.7265   9.7721   9.7851   9.8729   9.9296   9.9770  10.0039
    10.0485  10.0564  10.1275  10.1373  10.1575  10.1760  10.2408  10.2657
    10.3179  10.3582  10.4275  10.4610  10.5062  10.5501  10.5735  10.6247
    10.6367  10.6959  10.7605  10.7731  10.8629  10.8896  11.0539  11.1453
    11.1740  11.2222  11.2463  11.3083  11.3213  11.4638  11.4968  11.5295
    11.5506  11.5976  11.6256  11.6513  12.0384  12.0585  12.1833  12.2131
    12.9440  13.9992  14.0763  14.1210  14.6586  14.7321  14.8878  14.9314
    15.1664  15.2208  15.3144  15.4679  15.5400  15.6961  15.7915  15.8321
    16.0153  16.1350  16.1456  16.1927  16.3223  16.3417  16.4468  16.4683
    16.5098  16.5424  16.5974  16.6282  16.7007  16.7429  16.7795  16.7920
    16.8648  16.9429  16.9925  17.0741  17.1506  17.1834  17.3098  17.3532
    17.3842  17.6042

          k = 0.0000-0.5000-0.5000 ( 29944 PWs)   bands (ev):

   -43.5172 -43.3039 -43.0923 -43.0094 -42.9164 -42.8203 -42.8066 -42.7833
   -42.7764 -42.7509 -42.7122 -42.6614 -19.9263 -19.8827 -19.7944 -19.7416
   -19.7032 -19.5787 -19.5635 -19.5362 -19.5020 -19.4828 -19.4370 -19.4287
   -19.3929 -19.3448 -19.3419 -19.2905 -19.2820 -19.2594 -19.2572 -19.2326
   -19.2134 -19.1661 -19.1633 -19.1565 -19.1156 -19.0945 -19.0821 -19.0452
   -19.0344 -19.0203 -19.0079 -18.9966 -18.9576 -18.9461 -18.9260 -18.8805
    -3.3463  -3.2708  -2.9934  -2.8076  -2.0486  -1.9962  -1.9726  -1.9123
    -1.7862  -1.7202  -1.6605  -1.5518  -1.3100  -1.2546  -1.2153  -1.1741
    -1.0808  -0.9966  -0.9534  -0.9406  -0.8305  -0.8122  -0.7496  -0.6476
    -0.6367  -0.5815  -0.5624  -0.5093  -0.4849  -0.3822  -0.3376  -0.3125
     5.4078   5.5796   5.7683   5.8259   5.9045   6.1907   6.3399   6.4865
     6.5070   6.5415   6.6409   6.6644   6.7156   6.7466   6.8387   6.9106
     6.9447   7.0501   7.0781   7.1332   7.1855   7.2947   7.3774   7.4349
     7.5073   7.6753   7.8014   7.9346   7.9979   8.0436   8.1896   8.3283
     8.3628   8.6048   8.7407   8.8386   8.9048   9.0199   9.0579   9.1246
     9.1601   9.1830   9.2265   9.2567   9.3182   9.3895   9.4595   9.5322
     9.5505   9.5944   9.6220   9.6947   9.7487   9.7672   9.7999   9.8692
     9.9907  10.0485  10.0547  10.1581  10.1964  10.2412  10.2951  10.3390
    10.4129  10.4442  10.4930  10.5127  10.6056  10.6275  10.6439  10.6970
    10.7204  10.7574  10.8134  10.9378  10.9693  11.0510  11.0875  11.1070
    11.1644  11.1802  11.1998  11.2225  11.3077  11.3160  11.3598  11.3942
    11.4095  11.5158  11.5889  11.6019  11.7203  11.8501  12.0692  12.1301
    14.0718  14.1514  14.3822  14.4287  14.4802  14.6309  14.9644  14.9954
    15.1142  15.1481  15.2542  15.3688  15.5645  15.5783  15.6137  15.6270
    15.6948  15.7539  15.9109  16.0139  16.1579  16.2781  16.3534  16.3697
    16.3986  16.4646  16.5605  16.6142  16.6913  16.7588  16.8120  16.8377
    16.8928  16.9750  17.0074  17.0763  17.2282  17.2762  17.5830  17.7176
    17.7383  17.8512

          k =-0.5000-0.5000-0.5000 ( 29992 PWs)   bands (ev):

   -43.5172 -43.3039 -43.0923 -43.0094 -42.9162 -42.8211 -42.8069 -42.7834
   -42.7749 -42.7513 -42.7123 -42.6614 -19.9263 -19.8826 -19.7943 -19.7417
   -19.7033 -19.5821 -19.5566 -19.5358 -19.5139 -19.4819 -19.4252 -19.4245
   -19.3952 -19.3406 -19.3177 -19.3030 -19.2893 -19.2624 -19.2543 -19.2296
   -19.2222 -19.2157 -19.1517 -19.1413 -19.1101 -19.0851 -19.0790 -19.0438
   -19.0315 -19.0232 -19.0195 -18.9941 -18.9573 -18.9511 -18.9221 -18.8764
    -3.0497  -2.9774  -2.9077  -2.8411  -2.6719  -2.5377  -2.4445  -2.2956
    -1.3856  -1.3307  -1.2983  -1.2475  -1.1598  -1.1330  -1.0749  -1.0198
    -0.9664  -0.9404  -0.9231  -0.8509  -0.8104  -0.7999  -0.7837  -0.7602
    -0.7459  -0.6841  -0.6525  -0.6194  -0.5706  -0.5597  -0.4391  -0.4152
     5.7945   5.8268   5.8964   6.0050   6.0699   6.1173   6.1730   6.2210
     6.2904   6.3450   6.3594   6.4994   6.5700   6.5997   6.7317   6.8170
     6.9253   6.9542   7.0139   7.1905   7.2663   7.2881   7.4156   7.6666
     8.1156   8.1400   8.2306   8.3016   8.3523   8.3769   8.4596   8.4978
     8.5478   8.5896   8.6723   8.7244   8.7344   8.8744   8.8955   8.9413
     8.9577   8.9799   9.0209   9.0937   9.1088   9.1281   9.1985   9.2451
     9.3004   9.3843   9.4143   9.4969   9.5017   9.5374   9.7262   9.8773
     9.8904   9.9279   9.9588  10.0753  10.1062  10.1987  10.2615  10.3100
    10.3592  10.4186  10.4781  10.5011  10.5372  10.6018  10.6528  10.7591
    10.7830  10.8044  10.8771  10.9497  11.0623  11.1306  11.1979  11.2273
    11.2480  11.3330  11.3955  11.4221  11.4481  11.5205  11.5640  11.6205
    11.6659  11.6778  11.7471  11.7839  11.8603  11.9097  11.9384  11.9575
    14.4327  14.4825  14.5185  14.6337  14.6511  14.7310  14.7630  14.8642
    14.9372  14.9551  15.0484  15.2066  15.2517  15.4136  15.5424  15.5868
    15.6094  15.6559  15.7145  15.8101  15.8743  15.9862  16.0598  16.1091
    16.1658  16.3124  16.5477  16.5956  16.6789  16.7753  16.8083  16.8519
    16.9964  17.0839  17.2302  17.2567  17.8252  17.8640  17.9396  17.9972
    18.0587  18.1385

          k =-0.5000 0.0000 0.0000 ( 29958 PWs)   bands (ev):

   -43.5172 -43.3039 -43.0923 -43.0094 -42.9162 -42.8220 -42.8059 -42.7833
   -42.7737 -42.7531 -42.7119 -42.6614 -19.9263 -19.8827 -19.7944 -19.7417
   -19.7032 -19.5822 -19.5619 -19.5363 -19.5076 -19.4730 -19.4315 -19.4188
   -19.4069 -19.3484 -19.3207 -19.3029 -19.2923 -19.2720 -19.2467 -19.2311
   -19.2219 -19.1935 -19.1543 -19.1356 -19.1087 -19.0832 -19.0758 -19.0583
   -19.0256 -19.0246 -19.0209 -18.9881 -18.9572 -18.9510 -18.9221 -18.8834
    -3.5798  -3.4933  -2.3887  -2.3094  -2.2576  -2.2205  -2.0593  -1.9739
    -1.9118  -1.8243  -1.5176  -1.4181  -1.2296  -1.1566  -1.1314  -1.0963
    -1.0657  -1.0293  -0.9366  -0.9166  -0.8829  -0.8420  -0.7715  -0.7194
    -0.7060  -0.6272  -0.5757  -0.5318  -0.5067  -0.4708  -0.4388  -0.2979
     5.4076   5.4658   5.5538   5.6961   5.7197   5.8875   6.0991   6.2709
     6.5358   6.5633   6.6746   6.7146   6.7580   6.8372   6.9067   6.9488
     7.0002   7.1229   7.1939   7.3384   7.4671   7.5377   7.6394   7.7453
     7.7894   7.8332   7.9358   7.9978   8.0914   8.1181   8.2277   8.2903
     8.3277   8.3750   8.4756   8.5522   8.6044   8.6533   9.1904   9.2296
     9.2431   9.2882   9.3641   9.4015   9.4131   9.4408   9.5740   9.7184
     9.7497   9.7817   9.8376   9.8544   9.8809   9.9268   9.9462   9.9972
    10.0302  10.0562  10.0884  10.1065  10.1511  10.1876  10.2387  10.2906
    10.3118  10.3268  10.4116  10.4530  10.4739  10.5038  10.5222  10.6235
    10.6684  10.7072  10.7607  10.7687  10.8416  10.8759  10.9014  10.9357
    10.9995  11.0329  11.0877  11.1257  11.1550  11.2554  11.2980  11.3183
    11.3889  11.4971  11.5821  11.6314  12.0998  12.1171  12.1333  12.2009
    13.4616  13.7753  14.2958  14.3406  14.3748  14.6414  14.8480  14.9096
    15.0700  15.1745  15.2133  15.3776  15.4102  15.5616  15.6880  15.7226
    15.9565  15.9901  16.1209  16.1962  16.2826  16.3341  16.3731  16.3997
    16.5585  16.6294  16.7094  16.7446  16.7946  16.8260  16.8914  16.9299
    16.9810  16.9897  17.0113  17.0321  17.0953  17.1056  17.2794  17.3545
    17.5763  17.6736

          k = 0.0000-0.5000 0.0000 ( 29958 PWs)   bands (ev):

   -43.5172 -43.3039 -43.0923 -43.0094 -42.9164 -42.8203 -42.8066 -42.7833
   -42.7764 -42.7509 -42.7122 -42.6614 -19.9263 -19.8827 -19.7944 -19.7416
   -19.7032 -19.5799 -19.5635 -19.5362 -19.5020 -19.4828 -19.4369 -19.4286
   -19.3928 -19.3447 -19.3420 -19.2906 -19.2824 -19.2591 -19.2565 -19.2327
   -19.2135 -19.1660 -19.1635 -19.1557 -19.1156 -19.0941 -19.0818 -19.0455
   -19.0343 -19.0204 -19.0079 -18.9972 -18.9575 -18.9462 -18.9259 -18.8809
    -3.5895  -3.4860  -2.3972  -2.2874  -2.2530  -2.1566  -2.0671  -1.9745
    -1.9312  -1.8783  -1.5183  -1.4680  -1.2060  -1.1779  -1.1185  -1.0963
    -1.0435  -1.0272  -0.9990  -0.9265  -0.9164  -0.8587  -0.8008  -0.7591
    -0.6423  -0.6136  -0.5625  -0.5306  -0.5078  -0.4121  -0.3624  -0.2994
     5.2596   5.4944   5.6389   5.6946   5.8523   5.9017   6.1908   6.2978
     6.5663   6.6208   6.7182   6.7398   6.7911   6.8037   6.8639   6.9702
     7.0270   7.0826   7.2876   7.3025   7.4137   7.5406   7.5643   7.6143
     7.6650   7.8182   7.8499   7.9071   8.0097   8.1069   8.1985   8.2390
     8.3330   8.4286   8.4952   8.5524   8.6382   8.8061   9.0897   9.1533
     9.1836   9.2481   9.2713   9.3191   9.3595   9.3727   9.4807   9.5163
     9.6581   9.7369   9.8266   9.8433   9.8923   9.9221   9.9616  10.0093
    10.0586  10.0820  10.1213  10.1335  10.1451  10.2165  10.2293  10.2888
    10.3230  10.3807  10.4211  10.4765  10.5050  10.6019  10.6529  10.6675
    10.6933  10.7372  10.7706  10.7828  10.8500  10.9017  10.9406  10.9921
    11.0802  11.1091  11.1272  11.1706  11.2144  11.2909  11.3442  11.4203
    11.4398  11.4871  11.5982  11.6575  12.0742  12.1232  12.1497  12.2108
    13.4318  13.8114  14.0769  14.3654  14.4332  14.5846  14.9291  14.9565
    14.9812  15.1308  15.2665  15.2930  15.5410  15.6909  15.7792  15.8980
    15.9594  16.0463  16.0783  16.1801  16.2845  16.3450  16.4238  16.4859
    16.5210  16.5556  16.6065  16.7483  16.7538  16.8051  16.8403  16.8997
    16.9393  16.9632  16.9797  17.0248  17.1077  17.2528  17.2554  17.3236
    17.3934  17.4549

          k =-0.5000 0.0000 0.5000 ( 29944 PWs)   bands (ev):

   -43.5172 -43.3039 -43.0923 -43.0094 -42.9162 -42.8220 -42.8059 -42.7833
   -42.7737 -42.7531 -42.7119 -42.6614 -19.9263 -19.8827 -19.7944 -19.7416
   -19.7032 -19.5810 -19.5621 -19.5363 -19.5076 -19.4730 -19.4315 -19.4188
   -19.4068 -19.3485 -19.3208 -19.3029 -19.2922 -19.2726 -19.2466 -19.2315
   -19.2217 -19.1936 -19.1543 -19.1358 -19.1095 -19.0832 -19.0760 -19.0580
   -19.0256 -19.0245 -19.0209 -18.9876 -18.9572 -18.9509 -18.9222 -18.8830
    -3.3557  -3.2518  -2.9397  -2.8883  -2.0278  -1.9942  -1.9709  -1.9549
    -1.7862  -1.6897  -1.6729  -1.5961  -1.2868  -1.1903  -1.1631  -1.1326
    -1.0845  -0.9966  -0.9603  -0.8964  -0.8330  -0.7456  -0.7377  -0.6932
    -0.6329  -0.6106  -0.5732  -0.5657  -0.4955  -0.4419  -0.4026  -0.2891
     5.4238   5.5412   5.7159   5.9647   6.0139   6.1506   6.2731   6.3624
     6.4164   6.5154   6.5416   6.5803   6.6076   6.6225   6.7832   6.9204
     6.9523   7.0761   7.1123   7.2445   7.2716   7.3301   7.4987   7.5361
     7.6092   7.6320   7.7292   7.8299   8.0027   8.1137   8.3481   8.3613
     8.5998   8.6805   8.7994   8.8438   8.9427   9.0314   9.0654   9.1113
     9.1305   9.1753   9.2791   9.2930   9.3618   9.5291   9.5638   9.5756
     9.5967   9.6281   9.6897   9.7381   9.7497   9.7677   9.8131   9.9163
    10.0009  10.0451  10.0947  10.1080  10.1767  10.2157  10.2324  10.2484
    10.3041  10.3667  10.3997  10.4783  10.5261  10.5505  10.5787  10.6555
    10.7099  10.7765  10.8146  10.9192  10.9385  10.9799  11.0411  11.0496
    11.0993  11.1392  11.1750  11.2061  11.2296  11.3026  11.3496  11.3923
    11.4581  11.4813  11.5201  11.5915  11.7711  11.8211  12.0254  12.1704
    14.2620  14.3105  14.3318  14.3826  14.4121  14.6432  14.8949  14.9438
    15.0396  15.2235  15.2894  15.3539  15.4181  15.5418  15.5840  15.6505
    15.6766  15.7552  15.8124  15.8517  16.1664  16.1827  16.3402  16.4018
    16.4513  16.5206  16.5697  16.6638  16.7207  16.7515  16.8274  16.9290
    16.9626  16.9949  17.0179  17.0807  17.1487  17.2978  17.5434  17.7748
    17.8333  17.8384

          k =-0.5000 0.5000 0.0000 ( 29944 PWs)   bands (ev):

   -43.5172 -43.3039 -43.0923 -43.0094 -42.9162 -42.8211 -42.8069 -42.7833
   -42.7749 -42.7513 -42.7123 -42.6614 -19.9263 -19.8826 -19.7943 -19.7417
   -19.7034 -19.5831 -19.5569 -19.5358 -19.5140 -19.4817 -19.4251 -19.4244
   -19.3952 -19.3402 -19.3178 -19.3030 -19.2893 -19.2625 -19.2547 -19.2295
   -19.2210 -19.2154 -19.1518 -19.1409 -19.1101 -19.0851 -19.0784 -19.0436
   -19.0320 -19.0232 -19.0195 -18.9946 -18.9573 -18.9514 -18.9221 -18.8767
    -3.2563  -3.1734  -3.1271  -3.0475  -1.9424  -1.9159  -1.8499  -1.8105
    -1.7696  -1.7142  -1.6338  -1.5793  -1.3091  -1.2407  -1.2348  -1.1427
    -1.1058  -1.0985  -0.9655  -0.9075  -0.8081  -0.7655  -0.6848  -0.6806
    -0.6568  -0.6474  -0.5849  -0.5288  -0.4951  -0.4777  -0.3968  -0.3515
     5.4418   5.5377   5.7705   5.8902   5.9374   6.0254   6.1523   6.1755
     6.5727   6.6009   6.6894   6.7340   6.8084   6.8534   6.8958   6.9415
     6.9778   7.0300   7.1449   7.1831   7.2291   7.2362   7.3483   7.4415
     7.4859   7.5632   7.6371   7.8378   7.9829   8.1264   8.1909   8.2804
     8.7009   8.7778   8.8041   8.8063   8.9834   9.0135   9.0621   9.1636
     9.1885   9.2654   9.3599   9.4960   9.5300   9.5955   9.6219   9.6540
     9.6692   9.7083   9.7223   9.7582   9.8248   9.8650   9.9097   9.9576
     9.9985  10.0455  10.0739  10.0983  10.1398  10.1790  10.2256  10.2626
    10.2677  10.3107  10.3655  10.4484  10.4690  10.5301  10.5457  10.5572
    10.6065  10.6361  10.6839  10.6945  10.8769  10.8974  10.9952  11.0195
    11.0516  11.0756  11.1185  11.1626  11.1922  11.2600  11.2969  11.4053
    11.4451  11.5257  11.5667  11.6769  11.8681  11.9324  12.0384  12.0849
    14.3547  14.4244  14.5237  14.5827  14.6578  14.7211  14.7461  14.7979
    14.9173  14.9700  15.0035  15.2328  15.3090  15.4400  15.6512  15.7454
    15.7960  15.8519  15.8958  15.9487  16.0076  16.0824  16.0933  16.2946
    16.4010  16.5126  16.5494  16.7116  16.7670  16.7884  16.8747  16.9232
    16.9616  17.0740  17.2006  17.2310  17.2950  17.4780  17.6525  17.7051
    17.7878  17.8049

     the Fermi energy is    14.7136 ev

!    total energy              =   -3903.50076118 Ry
     total all-electron energy =    -33714.992827 Ry
     estimated scf accuracy    <       0.00000068 Ry
     smearing contrib. (-TS)   =      -0.00254186 Ry
     internal energy E=F+TS    =   -3903.49821932 Ry

     The total energy is F=E-TS. E is the sum of the following terms:
     one-electron contribution =    -675.28591372 Ry
     hartree contribution      =     583.07398734 Ry
     xc contribution           =    -466.26520788 Ry
     ewald contribution        =   -1612.73597994 Ry
     one-center paw contrib.   =   -1732.28510512 Ry

     convergence has been achieved in  12 iterations

     Forces acting on atoms (cartesian axes, Ry/au):

     atom    1 type  1   force =     0.00913502    0.00866274   -0.01225333
     atom    2 type  2   force =    -0.00552774    0.00278225   -0.02045555
     atom    3 type  3   force =    -0.02242055   -0.00550878    0.03154770
     atom    4 type  2   force =     0.00574293    0.03661862   -0.00293600
     atom    5 type  3   force =    -0.00568684   -0.00269637    0.01295896
     atom    6 type  2   force =     0.00143725   -0.00500363   -0.01041035
     atom    7 type  1   force =     0.00256305    0.00258650   -0.00263906
     atom    8 type  2   force =     0.00678169   -0.00941945   -0.00622498
     atom    9 type  1   force =    -0.00313373   -0.00664055    0.01289351
     atom   10 type  2   force =    -0.03241560    0.02566335    0.03141604
     atom   11 type  3   force =    -0.01663245    0.01570551   -0.03651458
     atom   12 type  2   force =     0.01610963    0.00646176    0.00075217
     atom   13 type  1   force =     0.00277693   -0.00138022    0.00737138
     atom   14 type  2   force =    -0.00106102   -0.01655040    0.00822183
     atom   15 type  1   force =     0.00199756   -0.00083636    0.00388332
     atom   16 type  2   force =     0.03680382   -0.04584695    0.00466470
     atom   17 type  1   force =     0.00648610   -0.00779474    0.00232342
     atom   18 type  2   force =    -0.00330156   -0.00231231   -0.00295715
     atom   19 type  3   force =     0.00589585    0.00827254    0.01862934
     atom   20 type  2   force =     0.03491798   -0.03505289   -0.02574589
     atom   21 type  1   force =     0.00266826   -0.00444291   -0.01544348
     atom   22 type  2   force =    -0.00051308    0.00646670   -0.03954809
     atom   23 type  1   force =     0.00410549   -0.00228677   -0.00622857
     atom   24 type  2   force =     0.01557367    0.00769725   -0.02530142
     atom   25 type  3   force =    -0.00577234   -0.00902183   -0.01260905
     atom   26 type  2   force =    -0.00455824   -0.02833196    0.00194999
     atom   27 type  1   force =     0.00018373    0.00527239   -0.00301500
     atom   28 type  2   force =     0.00623449   -0.00636839    0.01593641
     atom   29 type  1   force =     0.00562280    0.00215152    0.01350297
     atom   30 type  2   force =     0.00002073    0.02521267    0.02982597
     atom   31 type  3   force =    -0.00567086   -0.00229506   -0.01781993
     atom   32 type  2   force =    -0.02318202    0.03435271    0.03146938
     atom   33 type  1   force =    -0.00861112    0.00533981   -0.01028877
     atom   34 type  2   force =     0.00541990    0.01738197   -0.02681003
     atom   35 type  3   force =     0.02405285   -0.02242455    0.02929553
     atom   36 type  2   force =    -0.00595781    0.04466130   -0.03866047
     atom   37 type  3   force =     0.00432073    0.01607391    0.01594106
     atom   38 type  2   force =    -0.00125725   -0.04209280   -0.04461792
     atom   39 type  1   force =    -0.00343963    0.00379597   -0.00419236
     atom   40 type  2   force =    -0.00583885   -0.00117033   -0.01990213
     atom   41 type  3   force =     0.00444472    0.01913688   -0.02585732
     atom   42 type  2   force =     0.03204643   -0.02555649    0.03334372
     atom   43 type  1   force =    -0.00208498   -0.00488770    0.01134995
     atom   44 type  2   force =    -0.02070888    0.00770355    0.02327850
     atom   45 type  1   force =    -0.00350279   -0.00506335   -0.00341238
     atom   46 type  2   force =     0.00127134   -0.00691751    0.02306111
     atom   47 type  3   force =    -0.00658449   -0.00038226   -0.01990759
     atom   48 type  2   force =    -0.03649419   -0.00240239    0.04131181
     atom   49 type  1   force =    -0.00558159   -0.00560613    0.00023353
     atom   50 type  2   force =     0.00342459   -0.01225005   -0.00240455
     atom   51 type  1   force =    -0.00023694   -0.00605013   -0.00382773
     atom   52 type  2   force =    -0.03412786   -0.03766796    0.02616574
     atom   53 type  1   force =    -0.00304422    0.00120491   -0.00641727
     atom   54 type  2   force =     0.00061050    0.02574251   -0.02595330
     atom   55 type  3   force =     0.01306748    0.01134587    0.02249986
     atom   56 type  2   force =    -0.00995916    0.00182058   -0.00441142
     atom   57 type  3   force =     0.00716128   -0.01759985   -0.01347638
     atom   58 type  2   force =     0.00363376    0.02560988    0.00352188
     atom   59 type  1   force =     0.00052368    0.00441186    0.00350636
     atom   60 type  2   force =    -0.00542890   -0.00776872   -0.01264029
     atom   61 type  1   force =    -0.00646156    0.00658795    0.00653046
     atom   62 type  2   force =     0.00060227    0.00646006    0.02157522
     atom   63 type  1   force =     0.00000618    0.00269566    0.00683135
     atom   64 type  2   force =     0.02355358    0.00175063    0.00708918

     Total force =     0.235267     Total SCF correction =     0.002916


     Computing stress (Cartesian axis) and pressure

          total   stress  (Ry/bohr**3)                   (kbar)     P=       47.50
   0.00029159  -0.00004788  -0.00007064           42.89       -7.04      -10.39
  -0.00004788   0.00029843   0.00000149           -7.04       43.90        0.22
  -0.00007064   0.00000149   0.00037865          -10.39        0.22       55.70

     Energy error            =      1.7E-01 Ry
     Gradient error          =      4.6E-02 Ry/Bohr

     number of scf cycles    =   2
     number of bfgs steps    =   1

     energy             old  =   -3903.3283004469 Ry
     energy             new  =   -3903.5007611816 Ry

     CASE: energy            _new < energy            _old

     new trust radius        =       0.1212074557 bohr
     new conv_thr            =       0.0000004585 Ry


ATOMIC_POSITIONS (angstrom)
Al            0.0105432349        0.0085481145       -0.0100640984
N             2.0585956157        0.0041795251       -0.0554401622
Ti           -0.0436934767        2.0477601464        2.1381659213
N             2.0786840752        2.1456604180        2.0580214576
Ti            2.0581359491       -0.0068903790        2.1029772225
N             0.0014506518       -0.0093384422        2.0479392650
Al            2.0716059368        2.0702149283       -0.0014113497
N             0.0121712023        2.0521182636       -0.0130175529
Al           -0.0043671076       -0.0063964735        4.1441866301
N             1.9969704109        0.0571755166        4.1992886631
Ti           -0.0319752939        2.0994165524        6.1214254749
N             2.1099582985        2.0751498110        6.2053368021
Al            2.0716042301       -0.0028242679        6.2073838281
N            -0.0010232232       -0.0434812629        6.2155567717
Al            2.0685977542        2.0650075032        4.1355103208
N             0.0758749911        1.9792223353        4.1442323506
Al            0.0094890576        4.1255717269        0.0059085221
N             2.0630776280        4.1307214773       -0.0058185204
Ti            0.0079382287        6.2215863151        2.1020265385
N             2.1412354286        6.1277054491        2.0120455095
Al            2.0685112153        4.1297619118        2.0504028031
N            -0.0002708929        4.1447390731        1.9864775301
Al            2.0703930861        6.1980712612       -0.0047845741
N             0.0389622242        6.2117561221       -0.0629790694
Ti           -0.0068899641        4.1106275318        4.1060662806
N             2.0608625275        4.0727011685        4.1383364527
Al            0.0013536582        6.2064572950        6.1941769042
N             2.0764097654        6.1919589132        6.2485245785
Al            2.0734175752        4.1367028606        6.2156159211
N            -0.0001295261        4.1885993847        6.2702295125
Ti            2.0556969275        6.1974116164        4.0918645679
N            -0.0534943787        6.2753548299        4.2014937931
Al            4.1232899396        0.0081924302       -0.0085228400
N             6.2088349213        0.0420897393       -0.0655972058
Ti            4.1780351541        2.0159139017        2.1361746114
N             6.1874566903        2.1554012049        1.9911066332
Ti            6.2079613967        0.0282997177        2.0971695517
N             4.1322961801       -0.0788206015        1.9834133935
Al            6.1950640191        2.0695608756       -0.0006475068
N             4.1247678438        2.0668789831       -0.0554732237
Ti            4.1383872198        0.0371823681        4.0686791954
N             6.2697428044       -0.0577756942        4.2046788488
Al            4.1322642872        2.0604442895        6.2108512480
N             6.1516488865        2.0782362946        6.2629908222
Al            6.1954530305       -0.0051129999        6.1934145435
N             4.1354146067       -0.0106788352        6.2616508386
Ti            6.1945183047        2.0656506246        4.0879794562
N             4.0598639848        2.0644366445        4.2106729713
Al            4.1250982421        4.1256095078        0.0016536406
N             6.2044517634        4.0965913051       -0.0069152778
Al            4.1331127329        6.1963083153        2.0649197394
N             6.1273082765        6.1201934302        2.1208545339
Al            6.1985193021        4.1335360319        2.0627729724
N             4.1344151769        4.1959468780        2.0071390031
Ti            6.2289071567        6.2273997616        0.0533678368
N             4.1002886741        6.2016420312       -0.0094589248
Ti            4.1423756083        4.0978132784        4.1063966958
N             6.2055742103        4.1926979308        4.1412511594
Al            4.1331152766        6.2066510404        6.2029435379
N             6.1922590935        6.1886712538        6.1615222517
Al            6.1933139025        4.1400024210        6.2046777683
N             4.1344005823        4.1436972868        6.2551891808
Al            6.2023460298        6.2054014328        4.1376759336
N             4.1898188925        6.2026899266        4.1477903169



     Writing config-only to output data dir ../output/relax_sqs_all_x/tmp_x0625/TiAlN_x0625_relax.save/
     NEW-OLD atomic charge density approx. for the potential

     Check: negative core charge=   -0.000017

     total cpu time spent up to now is      231.1 secs

     Self-consistent Calculation

     iteration #  1     ecut=    60.00 Ry     beta= 0.20
     Davidson diagonalization with overlap
     c_bands:  1 eigenvalues not converged
     ethr =  1.00E-06,  avg # of iterations = 18.6

     total cpu time spent up to now is      250.2 secs

     total energy              =   -3903.57380427 Ry
     estimated scf accuracy    <       0.09661669 Ry

     iteration #  2     ecut=    60.00 Ry     beta= 0.20
     Davidson diagonalization with overlap
     ethr =  2.65E-05,  avg # of iterations =  1.0

     total cpu time spent up to now is      254.8 secs

     total energy              =   -3903.55836661 Ry
     estimated scf accuracy    <       0.05765817 Ry

     iteration #  3     ecut=    60.00 Ry     beta= 0.20
     Davidson diagonalization with overlap
     ethr =  1.58E-05,  avg # of iterations =  2.0

     total cpu time spent up to now is      259.8 secs

     total energy              =   -3903.55824696 Ry
     estimated scf accuracy    <       0.01703812 Ry

     iteration #  4     ecut=    60.00 Ry     beta= 0.20
     Davidson diagonalization with overlap
     ethr =  4.68E-06,  avg # of iterations =  4.4

     total cpu time spent up to now is      265.7 secs

     total energy              =   -3903.55938255 Ry
     estimated scf accuracy    <       0.00396299 Ry

     iteration #  5     ecut=    60.00 Ry     beta= 0.20
     Davidson diagonalization with overlap
     ethr =  1.09E-06,  avg # of iterations =  6.6

     total cpu time spent up to now is      272.7 secs

     total energy              =   -3903.55923089 Ry
     estimated scf accuracy    <       0.00166846 Ry

     iteration #  6     ecut=    60.00 Ry     beta= 0.20
     Davidson diagonalization with overlap
     ethr =  4.58E-07,  avg # of iterations =  2.0

     total cpu time spent up to now is      277.8 secs

     total energy              =   -3903.55930953 Ry
     estimated scf accuracy    <       0.00041178 Ry

     iteration #  7     ecut=    60.00 Ry     beta= 0.20
     Davidson diagonalization with overlap
     ethr =  1.13E-07,  avg # of iterations =  5.2

     total cpu time spent up to now is      284.3 secs

     total energy              =   -3903.55934217 Ry
     estimated scf accuracy    <       0.00013823 Ry

     iteration #  8     ecut=    60.00 Ry     beta= 0.20
     Davidson diagonalization with overlap
     ethr =  3.80E-08,  avg # of iterations =  6.5

     total cpu time spent up to now is      290.9 secs

     total energy              =   -3903.55933801 Ry
     estimated scf accuracy    <       0.00007701 Ry

     iteration #  9     ecut=    60.00 Ry     beta= 0.20
     Davidson diagonalization with overlap
     ethr =  2.12E-08,  avg # of iterations =  2.4

     total cpu time spent up to now is      297.0 secs

     total energy              =   -3903.55934404 Ry
     estimated scf accuracy    <       0.00003099 Ry

     iteration # 10     ecut=    60.00 Ry     beta= 0.20
     Davidson diagonalization with overlap
     ethr =  8.51E-09,  avg # of iterations =  3.9

     total cpu time spent up to now is      302.7 secs

[...]
    16.8617  16.8781  16.9224  16.9557  16.9960  17.0768  17.1531  17.1652
    17.3717  17.4685

          k = 0.0000-0.5000 0.0000 ( 29958 PWs)   bands (ev):

   -43.7142 -43.4130 -43.2680 -43.2335 -43.1482 -42.9707 -42.9391 -42.9322
   -42.9099 -42.8321 -42.8272 -42.7439 -20.1108 -20.0396 -19.9899 -19.8466
   -19.7883 -19.7529 -19.7058 -19.6953 -19.6670 -19.6550 -19.6092 -19.5867
   -19.5474 -19.5216 -19.4980 -19.4765 -19.4360 -19.4215 -19.3987 -19.3976
   -19.3515 -19.3089 -19.2889 -19.2648 -19.2376 -19.2132 -19.1860 -19.1593
   -19.1507 -19.1198 -19.0935 -19.0727 -19.0336 -19.0234 -18.9943 -18.9280
    -3.6557  -3.5571  -2.5167  -2.3678  -2.3361  -2.2008  -2.1594  -2.0010
    -1.9211  -1.9176  -1.5344  -1.5130  -1.2478  -1.2387  -1.1607  -1.1172
    -1.1027  -1.0909  -1.0356  -0.9479  -0.9312  -0.8494  -0.7914  -0.7523
    -0.6243  -0.5994  -0.5439  -0.5159  -0.5014  -0.4199  -0.3524  -0.2803
     5.3149   5.5375   5.6704   5.7444   5.8649   5.9347   6.2127   6.2952
     6.5258   6.5626   6.6910   6.7096   6.7708   6.7852   6.8969   6.9596
     6.9987   7.0884   7.2895   7.3395   7.4316   7.5145   7.5860   7.6230
     7.6595   7.7768   7.8284   7.9044   8.0066   8.0710   8.1588   8.2249
     8.3508   8.4353   8.4677   8.5521   8.6288   8.8630   9.0770   9.1715
     9.1966   9.2234   9.2612   9.3177   9.3599   9.4118   9.4607   9.4839
     9.6301   9.6931   9.8132   9.8466   9.9380   9.9411   9.9588  10.0220
    10.0486  10.1028  10.1344  10.1786  10.2355  10.2483  10.2642  10.3068
    10.3251  10.4144  10.4701  10.5043  10.5149  10.6331  10.6631  10.6857
    10.6922  10.7224  10.7605  10.8261  10.8817  10.9246  10.9748  11.0417
    11.1099  11.1359  11.1709  11.1953  11.2285  11.3016  11.3672  11.4415
    11.4852  11.5405  11.6152  11.6791  12.0999  12.1080  12.1589  12.1797
    13.1548  13.6078  13.7715  14.0129  14.2345  14.2772  14.6966  14.7061
    14.7261  15.0051  15.1444  15.1909  15.4052  15.5320  15.5940  15.7333
    15.7843  15.8640  15.9453  16.0194  16.1595  16.1736  16.3011  16.3180
    16.3376  16.4001  16.5422  16.5750  16.6723  16.6958  16.7456  16.8326
    16.8569  16.8830  16.9027  16.9640  16.9916  17.0984  17.1277  17.1491
    17.2633  17.3310

          k =-0.5000 0.0000 0.5000 ( 29944 PWs)   bands (ev):

   -43.7142 -43.4129 -43.2681 -43.2334 -43.1481 -42.9718 -42.9393 -42.9284
   -42.9125 -42.8321 -42.8270 -42.7440 -20.1108 -20.0396 -19.9898 -19.8467
   -19.7883 -19.7537 -19.7010 -19.6957 -19.6778 -19.6457 -19.6035 -19.5883
   -19.5417 -19.5273 -19.4886 -19.4795 -19.4451 -19.4322 -19.4114 -19.3791
   -19.3510 -19.3294 -19.2795 -19.2608 -19.2319 -19.2001 -19.1826 -19.1707
   -19.1531 -19.1149 -19.1010 -19.0715 -19.0372 -19.0186 -18.9933 -18.9293
    -3.4526  -3.3201  -2.9954  -2.9456  -2.1357  -2.0482  -2.0309  -1.9943
    -1.8577  -1.7476  -1.7172  -1.6422  -1.3342  -1.2209  -1.1846  -1.1118
    -1.0844  -1.0102  -0.9414  -0.8986  -0.8518  -0.7922  -0.7646  -0.6855
    -0.6668  -0.6009  -0.5697  -0.5591  -0.4753  -0.4356  -0.4061  -0.2964
     5.4593   5.5874   5.7085   5.9167   5.9794   6.1555   6.3304   6.4239
     6.4266   6.5210   6.5228   6.6117   6.6601   6.6733   6.7792   6.8944
     6.9214   7.0755   7.1123   7.2368   7.2779   7.3208   7.4755   7.5179
     7.5911   7.6111   7.7199   7.7910   7.9979   8.1560   8.3335   8.3441
     8.6093   8.6793   8.7894   8.8479   8.9410   9.0103   9.0803   9.1294
     9.1568   9.1753   9.2023   9.2732   9.3425   9.4782   9.5484   9.5874
     9.6250   9.6317   9.7058   9.7465   9.7696   9.7816   9.8017   9.8816
    10.0192  10.0470  10.1211  10.1588  10.1683  10.2451  10.2621  10.3197
    10.3458  10.3932  10.4619  10.5055  10.5328  10.5590  10.5781  10.6780
    10.6993  10.7983  10.8749  10.9269  10.9677  11.0087  11.0324  11.0703
    11.0985  11.1592  11.1889  11.2445  11.2701  11.3327  11.3688  11.4024
    11.4866  11.5021  11.5111  11.5478  11.7886  11.8597  12.0189  12.2054
    13.8736  13.9677  14.0297  14.1129  14.2068  14.4005  14.6824  14.7513
    14.8851  15.0356  15.0631  15.2296  15.2866  15.3522  15.4258  15.5052
    15.5714  15.6393  15.7198  15.7497  15.9962  16.0919  16.2212  16.2405
    16.2996  16.4170  16.4643  16.5640  16.6823  16.7211  16.7865  16.8188
    16.8575  16.9008  16.9323  16.9676  17.0471  17.1426  17.3010  17.5156
    17.5616  17.6640

          k =-0.5000 0.5000 0.0000 ( 29944 PWs)   bands (ev):

   -43.7142 -43.4129 -43.2680 -43.2335 -43.1481 -42.9714 -42.9378 -42.9326
   -42.9102 -42.8322 -42.8271 -42.7440 -20.1108 -20.0396 -19.9898 -19.8468
   -19.7892 -19.7522 -19.7020 -19.6951 -19.6775 -19.6508 -19.6025 -19.5871
   -19.5370 -19.5271 -19.4942 -19.4733 -19.4405 -19.4276 -19.4078 -19.3785
   -19.3563 -19.3467 -19.2762 -19.2631 -19.2316 -19.1926 -19.1811 -19.1767
   -19.1488 -19.1233 -19.0924 -19.0781 -19.0382 -19.0152 -18.9937 -18.9274
    -3.3414  -3.2460  -3.1958  -3.1064  -2.0577  -1.9747  -1.9690  -1.8852
    -1.8358  -1.7399  -1.6247  -1.5891  -1.3649  -1.2432  -1.2056  -1.1611
    -1.1190  -1.1089  -0.9797  -0.8921  -0.8146  -0.7948  -0.7348  -0.7248
    -0.6901  -0.6522  -0.5663  -0.5147  -0.4961  -0.4638  -0.3863  -0.3411
     5.4600   5.5562   5.7875   5.9201   5.9718   6.0596   6.1652   6.1972
     6.6410   6.6537   6.6713   6.7454   6.7904   6.8348   6.8883   6.9084
     6.9564   6.9941   7.0988   7.1679   7.2064   7.2608   7.3405   7.4075
     7.4592   7.5380   7.5945   7.7834   7.9437   8.1672   8.2016   8.3263
     8.6788   8.7763   8.8368   8.8617   8.9760   9.0065   9.0814   9.1575
     9.2457   9.2934   9.3472   9.4979   9.5598   9.5702   9.5743   9.6036
     9.6366   9.6779   9.7418   9.7839   9.8358   9.8497   9.9019   9.9534
    10.0024  10.0460  10.0943  10.1076  10.1590  10.1971  10.2227  10.2435
    10.3185  10.3450  10.4013  10.4673  10.4831  10.5412  10.5758  10.6105
    10.6487  10.6949  10.7299  10.7617  10.9236  10.9387  11.0055  11.0315
    11.0570  11.0775  11.1484  11.1867  11.2097  11.2570  11.2856  11.4374
    11.4629  11.4893  11.5492  11.6716  11.9079  11.9461  12.1158  12.1335
    13.9097  14.0911  14.1737  14.3013  14.4560  14.4780  14.5317  14.6029
    14.7814  14.7926  14.8368  15.1192  15.1800  15.3272  15.4819  15.5770
    15.6134  15.6682  15.7117  15.7959  15.8738  15.9987  16.0234  16.1644
    16.2879  16.3852  16.4418  16.6796  16.6901  16.7447  16.8113  16.8807
    16.9253  16.9952  17.0392  17.1096  17.1813  17.1989  17.3663  17.4349
    17.5166  17.5676

     the Fermi energy is    14.4652 ev

!    total energy              =   -3903.57186012 Ry
     total all-electron energy =    -33715.063926 Ry
     estimated scf accuracy    <          6.0E-09 Ry
     smearing contrib. (-TS)   =      -0.00240669 Ry
     internal energy E=F+TS    =   -3903.56945343 Ry

     The total energy is F=E-TS. E is the sum of the following terms:
     one-electron contribution =    -654.25256679 Ry
     hartree contribution      =     571.95321063 Ry
     xc contribution           =    -466.26006723 Ry
     ewald contribution        =   -1622.67974550 Ry
     one-center paw contrib.   =   -1732.33028453 Ry

     convergence has been achieved in  10 iterations

     Forces acting on atoms (cartesian axes, Ry/au):

     atom    1 type  1   force =     0.00021460    0.00043002    0.00105335
     atom    2 type  2   force =     0.00063119   -0.00017528   -0.00071335
     atom    3 type  3   force =     0.00006090   -0.00056443    0.00035891
     atom    4 type  2   force =    -0.00050334   -0.00111837   -0.00009600
     atom    5 type  3   force =    -0.00051085   -0.00058656    0.00053104
     atom    6 type  2   force =     0.00029450    0.00009646    0.00041835
     atom    7 type  1   force =     0.00017827   -0.00063137   -0.00077899
     atom    8 type  2   force =    -0.00079758    0.00149663   -0.00027528
     atom    9 type  1   force =    -0.00041872    0.00003168    0.00079456
     atom   10 type  2   force =    -0.00030730   -0.00028468   -0.00062309
     atom   11 type  3   force =    -0.00135117    0.00110719   -0.00038566
     atom   12 type  2   force =     0.00008177   -0.00059129   -0.00111744
     atom   13 type  1   force =     0.00026869   -0.00034933   -0.00135759
     atom   14 type  2   force =     0.00024407   -0.00011177   -0.00037171
     atom   15 type  1   force =    -0.00092472   -0.00071445    0.00054410
     atom   16 type  2   force =    -0.00023963    0.00061166   -0.00021657
     atom   17 type  1   force =    -0.00017489    0.00084321    0.00006398
     atom   18 type  2   force =     0.00025721   -0.00011867   -0.00025382
     atom   19 type  3   force =     0.00008861    0.00060356    0.00015165
     atom   20 type  2   force =     0.00063409    0.00009751   -0.00005593
     atom   21 type  1   force =    -0.00002632   -0.00046671    0.00017139
     atom   22 type  2   force =     0.00056842   -0.00039055    0.00015277
     atom   23 type  1   force =    -0.00024077    0.00027638    0.00102992
     atom   24 type  2   force =     0.00145897   -0.00003831   -0.00035496
     atom   25 type  3   force =    -0.00107296    0.00049753   -0.00043378
     atom   26 type  2   force =     0.00012056   -0.00134638   -0.00036881
     atom   27 type  1   force =     0.00097971   -0.00073511    0.00028045
     atom   28 type  2   force =    -0.00032584    0.00014614    0.00087469
     atom   29 type  1   force =    -0.00006086    0.00004774   -0.00147930
     atom   30 type  2   force =    -0.00033664    0.00094671   -0.00002195
     atom   31 type  3   force =    -0.00056544   -0.00149628   -0.00084062
     atom   32 type  2   force =     0.00003758   -0.00053551    0.00065708
     atom   33 type  1   force =     0.00031023   -0.00078470    0.00183766
     atom   34 type  2   force =    -0.00021950    0.00158716   -0.00017889
     atom   35 type  3   force =    -0.00010490    0.00024671   -0.00055476
     atom   36 type  2   force =     0.00002357   -0.00095879    0.00104071
     atom   37 type  3   force =     0.00104374   -0.00066328    0.00050167
     atom   38 type  2   force =     0.00020835    0.00053837    0.00200366
     atom   39 type  1   force =    -0.00033577   -0.00016524    0.00120879
     atom   40 type  2   force =     0.00060276   -0.00023158   -0.00068434
     atom   41 type  3   force =     0.00033806   -0.00071653    0.00062235
     atom   42 type  2   force =    -0.00017428   -0.00055722   -0.00000622
     atom   43 type  1   force =     0.00010250    0.00023299   -0.00134611
     atom   44 type  2   force =    -0.00093353    0.00041214    0.00094292
     atom   45 type  1   force =    -0.00055006    0.00070894   -0.00014812
     atom   46 type  2   force =    -0.00030155    0.00055849    0.00086885
     atom   47 type  3   force =     0.00005938    0.00010425    0.00001588
     atom   48 type  2   force =    -0.00071659   -0.00062882   -0.00184257
     atom   49 type  1   force =     0.00081025    0.00035598   -0.00005443
     atom   50 type  2   force =     0.00002531   -0.00004864    0.00022781
     atom   51 type  1   force =     0.00013111    0.00041580   -0.00086630
     atom   52 type  2   force =    -0.00005605    0.00029680    0.00051841
     atom   53 type  1   force =     0.00082722   -0.00063991   -0.00042883
     atom   54 type  2   force =     0.00041926    0.00032927   -0.00064460
     atom   55 type  3   force =     0.00209638    0.00235437    0.00091473
     atom   56 type  2   force =    -0.00046099   -0.00014359    0.00084248
     atom   57 type  3   force =     0.00008162   -0.00042571   -0.00045541
     atom   58 type  2   force =    -0.00084044    0.00082666   -0.00026437
     atom   59 type  1   force =    -0.00072834   -0.00008400    0.00034039
     atom   60 type  2   force =     0.00022535    0.00143189   -0.00024085
     atom   61 type  1   force =    -0.00054151    0.00082051   -0.00029459
     atom   62 type  2   force =    -0.00036247   -0.00067367   -0.00008031
     atom   63 type  1   force =     0.00034755   -0.00012242   -0.00077634
     atom   64 type  2   force =     0.00041123   -0.00135363   -0.00035666

     Total force =     0.009656     Total SCF correction =     0.000219


     Computing stress (Cartesian axis) and pressure

          total   stress  (Ry/bohr**3)                   (kbar)     P=       43.94
   0.00025655  -0.00004874  -0.00008376           37.74       -7.17      -12.32
  -0.00004874   0.00026283   0.00000343           -7.17       38.66        0.50
  -0.00008376   0.00000343   0.00037679          -12.32        0.50       55.43

     Energy error            =      3.2E-04 Ry
     Gradient error          =      2.4E-03 Ry/Bohr

     number of scf cycles    =   8
     number of bfgs steps    =   7

     energy             old  =   -3903.5715366020 Ry
     energy             new  =   -3903.5718601237 Ry

     CASE: energy            _new < energy            _old

     new trust radius        =       0.0143954572 bohr

     The maximum number of steps has been reached.

     End of BFGS Geometry Optimization

ATOMIC_POSITIONS (angstrom)
Al            0.0297150133        0.0383247943       -0.0457411765
N             2.0598051858        0.0079592382       -0.0562445539
Ti           -0.0436449800        2.0554199884        2.1346549798
N             2.0819138858        2.1342670237        2.0570226491
Ti            2.0474303636       -0.0034608357        2.1013270903
N             0.0025477613       -0.0044717930        2.0373525970
Al            2.0662495031        2.0688131362       -0.0112445851
N             0.0183009669        2.0528663479       -0.0269965428
Al           -0.0042158635       -0.0252582017        4.2047110193
N             2.0053979648        0.0391788307        4.2104106419
Ti           -0.0557378994        2.1315896125        6.1132144369
N             2.0957348780        2.0871673622        6.2149499728
Al            2.0757078848       -0.0027395526        6.2123562432
N            -0.0023700513       -0.0326643349        6.2245564014
Al            2.0694589882        2.0669124992        4.1614144073
N             0.0663939844        1.9646412130        4.1421874723
Al            0.0154860304        4.1070516459       -0.0062647175
N             2.0640441300        4.1231875716       -0.0166307184
Ti            0.0234583781        6.2184306311        2.1167910781
N             2.1495925835        6.1144094164        1.9951003591
Al            2.0799799400        4.1093583103        2.0084731843
N             0.0011507239        4.1495818234        1.9685932960
Al            2.0782666690        6.1965197179       -0.0206328463
N             0.0463462144        6.2303348360       -0.0542364571
Ti           -0.0182123232        4.1041920580        4.0985584322
N             2.0553765921        4.0714571657        4.1362300622
Al            0.0060514441        6.2058180303        6.2086324613
N             2.0855421304        6.1844994202        6.2400643984
Al            2.0900538015        4.1426138009        6.2317654659
N            -0.0030536786        4.1961220130        6.2659680426
Ti            2.0596285881        6.1717305837        4.0822609098
N            -0.0510928153        6.2658813807        4.2212461088
Al            4.1092035534        0.0064598343       -0.0260933342
N             6.2158640430        0.0477730189       -0.0614543131
Ti            4.1847834545        1.9970928042        2.1410453848
N             6.1898507910        2.1707310538        1.9673456231
Ti            6.2128230371        0.0438906092        2.1056042108
N             4.1303258931       -0.1004892422        1.9614934715
Al            6.1936915615        2.0772787974       -0.0259603624
N             4.1147192688        2.0615808941       -0.0458826158
Ti            4.1473879314        0.0371123688        4.0631136792
N             6.2653292912       -0.0568142823        4.2235965650
Al            4.1215783690        2.0567408111        6.2400655482
N             6.1428751409        2.0986347835        6.2516418182
Al            6.1838701932       -0.0200423610        6.2060104998
N             4.1346499738       -0.0148931561        6.2558887901
Ti            6.1739728868        2.0739385097        4.0847133136
N             4.0512385007        2.0560977456        4.2398684540
Al            4.1274374267        4.1196593815       -0.0041490185
N             6.2091249871        4.1159486547       -0.0119896072
Al            4.1356477837        6.1777582220        2.0393516724
N             6.1356338660        6.1299630670        2.1302203535
Al            6.1919332832        4.1472916373        2.0253150126
N             4.1385480752        4.1757055128        1.9971624692
Ti            6.2568593013        6.2538949316        0.0739744904
N             4.1163207711        6.1974152121       -0.0212281664
Ti            4.1510186640        4.0852086834        4.1004329151
N             6.2023611646        4.1907214245        4.1464702511
Al            4.1330122352        6.2086185151        6.2144014349
N             6.1850591958        6.1883331113        6.1891227886
Al            6.1687713613        4.1728718072        6.2353136843
N             4.1334066313        4.1496388227        6.2567516981
Al            6.1893094882        6.2009617574        4.1632489630
N             4.1780858819        6.2011833369        4.1547542136



     Writing config-only to output data dir ../output/relax_sqs_all_x/tmp_x0625/TiAlN_x0625_relax.save/
     NEW-OLD atomic charge density approx. for the potential

     Check: negative core charge=   -0.000017
 
     init_run     :      2.69s CPU      2.84s WALL (       1 calls)
     electrons    :    573.28s CPU    585.43s WALL (       8 calls)
     update_pot   :      2.09s CPU      2.12s WALL (       8 calls)
     forces       :     11.80s CPU     12.10s WALL (       8 calls)
     stress       :    117.25s CPU    118.36s WALL (       8 calls)

     Called by init_run:
     wfcinit      :      2.25s CPU      2.34s WALL (       1 calls)
     potinit      :      0.21s CPU      0.22s WALL (       1 calls)
     hinit0       :      0.12s CPU      0.12s WALL (       1 calls)

     Called by electrons:
     c_bands      :    490.20s CPU    498.78s WALL (      91 calls)
     sum_band     :     56.90s CPU     58.77s WALL (      91 calls)
     v_of_rho     :      3.43s CPU      3.50s WALL (      98 calls)
     newd         :      5.56s CPU      6.62s WALL (      98 calls)
     PAW_pot      :     16.59s CPU     16.80s WALL (     106 calls)
     mix_rho      :      3.87s CPU      4.17s WALL (      91 calls)

     Called by c_bands:
     init_us_2    :      8.05s CPU      8.15s WALL (     414 calls)
     init_us_2:cp :      8.05s CPU      8.15s WALL (     414 calls)
     cegterg      :    434.56s CPU    442.75s WALL (     182 calls)

     Called by *egterg:
     cdiaghg      :     38.08s CPU     38.60s WALL (     913 calls)
     h_psi        :    221.25s CPU    224.70s WALL (     933 calls)
     s_psi        :     56.11s CPU     56.55s WALL (     933 calls)
     g_psi        :      1.07s CPU      1.08s WALL (     749 calls)

     Called by h_psi:
     h_psi:calbec :     52.41s CPU     52.84s WALL (     933 calls)
     vloc_psi     :    110.65s CPU    112.47s WALL (     933 calls)
     add_vuspsi   :     56.05s CPU     56.57s WALL (     933 calls)

     General routines
     calbec       :     84.93s CPU     85.61s WALL (    1211 calls)
     fft          :      1.77s CPU      1.82s WALL (    1289 calls)
     ffts         :      1.98s CPU      2.01s WALL (    1782 calls)
     fftw         :    113.09s CPU    114.95s WALL (  241958 calls)
     davcio       :      0.00s CPU      0.15s WALL (       2 calls)
 
     Parallel routines
 
     PWSCF        :  11m52.61s CPU  12m 7.36s WALL

 
   This run was terminated on:   3:39:28  11May2026            

=------------------------------------------------------------------------------=
   JOB DONE.
=------------------------------------------------------------------------------=
