
     Program PWSCF v.7.1 starts on 11May2026 at  3:27:20 

     This program is part of the open-source Quantum ESPRESSO suite
     for quantum simulation of materials; please cite
         "P. Giannozzi et al., J. Phys.:Condens. Matter 21 395502 (2009);
         "P. Giannozzi et al., J. Phys.:Condens. Matter 29 465901 (2017);
         "P. Giannozzi et al., J. Chem. Phys. 152 154105 (2020);
          URL http://www.quantum-espresso.org", 
     in publications or presentations arising from this work. More details at
     http://www.quantum-espresso.org/quote

     Parallel version (MPI & OpenMP), running on      32 processor cores
     Number of MPI processes:                32
     Threads/MPI process:                     1

     MPI processes distributed on     1 nodes
     91054 MiB available memory on the printing compute node when the environment starts
 
     Reading input from relax_sqs_x0875.in

     Current dimensions of program PWSCF are:
     Max number of different atomic species (ntypx) = 10
     Max number of k-points (npk) = 150000
     Max angular momentum in pseudopotentials (lmaxx) =  4
     file Al.pbe-n-kjpaw_psl.1.0.0.UPF: wavefunction(s)  3S 3P renormalized
     file N.pbe-n-kjpaw_psl.1.0.0.UPF: wavefunction(s)  2S renormalized
     file Ti.pbe-spn-kjpaw_psl.1.0.0.UPF: wavefunction(s)  3S 3P 3D renormalized
 
     K-points division:     npool     =       4
     R & G space division:  proc/nbgrp/npool/nimage =       8
     Subspace diagonalization in iterative solution of the eigenvalue problem:
     one sub-group per band group will be used
     scalapack distributed-memory algorithm (size of sub-group:  2*  2 procs)

 
     Parallelization info
     --------------------
     sticks:   dense  smooth     PW     G-vecs:    dense   smooth      PW
     Min         571     571    155                28991    28991    4141
     Max         573     573    157                28992    28992    4142
     Sum        4577    4577   1245               231933   231933   33131
 
     Using Slab Decomposition
 


     bravais-lattice index     =            0
     lattice parameter (alat)  =      15.4627  a.u.
     unit-cell volume          =    3697.0442 (a.u.)^3
     number of atoms/cell      =           64
     number of atomic types    =            3
     number of electrons       =       292.00
     number of Kohn-Sham states=          175
     kinetic-energy cutoff     =      60.0000  Ry
     charge density cutoff     =     240.0000  Ry
     scf convergence threshold =      1.0E-06
     mixing beta               =       0.2000
     number of iterations used =            8  local-TF  mixing
     energy convergence thresh.=      1.0E-04
     force convergence thresh. =      1.0E-03
     Exchange-correlation= SLA  PW   PBX  PBC
                           (   1   4   3   4   0   0   0)
     nstep                     =            8


     celldm(1)=  15.462684  celldm(2)=   0.000000  celldm(3)=   0.000000
     celldm(4)=   0.000000  celldm(5)=   0.000000  celldm(6)=   0.000000

     crystal axes: (cart. coord. in units of alat)
               a(1) = (   1.000000   0.000000   0.000000 )  
               a(2) = (   0.000000   1.000000   0.000000 )  
               a(3) = (   0.000000   0.000000   1.000000 )  

     reciprocal axes: (cart. coord. in units 2 pi/alat)
               b(1) = (  1.000000  0.000000  0.000000 )  
               b(2) = (  0.000000  1.000000  0.000000 )  
               b(3) = (  0.000000  0.000000  1.000000 )  


     PseudoPot. # 1 for Al read from file:
     ../../pseudo/Al.pbe-n-kjpaw_psl.1.0.0.UPF
     MD5 check sum: 502b6b27b9c6270cab5dd1084b96fa6d
     Pseudo is Projector augmented-wave + core cor, Zval =  3.0
     Generated using &quot;atomic&quot; code by A. Dal Corso  v.6.3
     Shape of augmentation charge: PSQ
     Using radial grid of 1135 points,  6 beta functions with: 
                l(1) =   0
                l(2) =   0
                l(3) =   1
                l(4) =   1
                l(5) =   2
                l(6) =   2
     Q(r) pseudized with 0 coefficients 


     PseudoPot. # 2 for N  read from file:
     ../../pseudo/N.pbe-n-kjpaw_psl.1.0.0.UPF
     MD5 check sum: 14c48229446f9f2d411169a3abcbc3fa
     Pseudo is Projector augmented-wave + core cor, Zval =  5.0
     Generated using &quot;atomic&quot; code by A. Dal Corso  v.6.3
     Shape of augmentation charge: PSQ
     Using radial grid of 1085 points,  4 beta functions with: 
                l(1) =   0
                l(2) =   0
                l(3) =   1
                l(4) =   1
     Q(r) pseudized with 0 coefficients 


     PseudoPot. # 3 for Ti read from file:
     ../../pseudo/Ti.pbe-spn-kjpaw_psl.1.0.0.UPF
     MD5 check sum: 01f69b0d8ba4438b2e03ac6ea4af1c0b
     Pseudo is Projector augmented-wave + core cor, Zval = 12.0
     Generated using &quot;atomic&quot; code by A. Dal Corso  v.6.2.2
     Shape of augmentation charge: PSQ
     Using radial grid of 1177 points,  6 beta functions with: 
                l(1) =   0
                l(2) =   0
                l(3) =   1
                l(4) =   1
                l(5) =   2
                l(6) =   2
     Q(r) pseudized with 0 coefficients 


     atomic species   valence    mass     pseudopotential
        Al             3.00    26.98200     Al( 1.00)
        N              5.00    14.00700     N ( 1.00)
        Ti            12.00    47.86700     Ti( 1.00)

     No symmetry found



   Cartesian axes

     site n.     atom                  positions (alat units)
         1           Al  tau(   1) = (   0.0000000   0.0000000   0.0000000  )
         2           N   tau(   2) = (   0.2500000   0.0000000   0.0000000  )
         3           Al  tau(   3) = (   0.0000000   0.2500000   0.2500000  )
         4           N   tau(   4) = (   0.2500000   0.2500000   0.2500000  )
         5           Al  tau(   5) = (   0.2500000   0.0000000   0.2500000  )
         6           N   tau(   6) = (   0.0000000   0.0000000   0.2500000  )
         7           Ti  tau(   7) = (   0.2500000   0.2500000   0.0000000  )
         8           N   tau(   8) = (   0.0000000   0.2500000   0.0000000  )
         9           Ti  tau(   9) = (   0.0000000   0.0000000   0.5000000  )
        10           N   tau(  10) = (   0.2500000   0.0000000   0.5000000  )
        11           Al  tau(  11) = (   0.0000000   0.2500000   0.7500000  )
        12           N   tau(  12) = (   0.2500000   0.2500000   0.7500000  )
        13           Ti  tau(  13) = (   0.2500000   0.0000000   0.7500000  )
        14           N   tau(  14) = (   0.0000000   0.0000000   0.7500000  )
        15           Al  tau(  15) = (   0.2500000   0.2500000   0.5000000  )
        16           N   tau(  16) = (   0.0000000   0.2500000   0.5000000  )
        17           Al  tau(  17) = (   0.0000000   0.5000000   0.0000000  )
        18           N   tau(  18) = (   0.2500000   0.5000000   0.0000000  )
        19           Al  tau(  19) = (   0.0000000   0.7500000   0.2500000  )
        20           N   tau(  20) = (   0.2500000   0.7500000   0.2500000  )
        21           Ti  tau(  21) = (   0.2500000   0.5000000   0.2500000  )
        22           N   tau(  22) = (   0.0000000   0.5000000   0.2500000  )
        23           Al  tau(  23) = (   0.2500000   0.7500000   0.0000000  )
        24           N   tau(  24) = (   0.0000000   0.7500000   0.0000000  )
        25           Al  tau(  25) = (   0.0000000   0.5000000   0.5000000  )
        26           N   tau(  26) = (   0.2500000   0.5000000   0.5000000  )
        27           Al  tau(  27) = (   0.0000000   0.7500000   0.7500000  )
        28           N   tau(  28) = (   0.2500000   0.7500000   0.7500000  )
        29           Al  tau(  29) = (   0.2500000   0.5000000   0.7500000  )
        30           N   tau(  30) = (   0.0000000   0.5000000   0.7500000  )
        31           Al  tau(  31) = (   0.2500000   0.7500000   0.5000000  )
        32           N   tau(  32) = (   0.0000000   0.7500000   0.5000000  )
        33           Al  tau(  33) = (   0.5000000   0.0000000   0.0000000  )
        34           N   tau(  34) = (   0.7500000   0.0000000   0.0000000  )
        35           Al  tau(  35) = (   0.5000000   0.2500000   0.2500000  )
        36           N   tau(  36) = (   0.7500000   0.2500000   0.2500000  )
        37           Al  tau(  37) = (   0.7500000   0.0000000   0.2500000  )
        38           N   tau(  38) = (   0.5000000   0.0000000   0.2500000  )
        39           Al  tau(  39) = (   0.7500000   0.2500000   0.0000000  )
        40           N   tau(  40) = (   0.5000000   0.2500000   0.0000000  )
        41           Al  tau(  41) = (   0.5000000   0.0000000   0.5000000  )
        42           N   tau(  42) = (   0.7500000   0.0000000   0.5000000  )
        43           Al  tau(  43) = (   0.5000000   0.2500000   0.7500000  )
        44           N   tau(  44) = (   0.7500000   0.2500000   0.7500000  )
        45           Al  tau(  45) = (   0.7500000   0.0000000   0.7500000  )
        46           N   tau(  46) = (   0.5000000   0.0000000   0.7500000  )
        47           Al  tau(  47) = (   0.7500000   0.2500000   0.5000000  )
        48           N   tau(  48) = (   0.5000000   0.2500000   0.5000000  )
        49           Al  tau(  49) = (   0.5000000   0.5000000   0.0000000  )
        50           N   tau(  50) = (   0.7500000   0.5000000   0.0000000  )
        51           Al  tau(  51) = (   0.5000000   0.7500000   0.2500000  )
        52           N   tau(  52) = (   0.7500000   0.7500000   0.2500000  )
        53           Al  tau(  53) = (   0.7500000   0.5000000   0.2500000  )
        54           N   tau(  54) = (   0.5000000   0.5000000   0.2500000  )
        55           Al  tau(  55) = (   0.7500000   0.7500000   0.0000000  )
        56           N   tau(  56) = (   0.5000000   0.7500000   0.0000000  )
        57           Al  tau(  57) = (   0.5000000   0.5000000   0.5000000  )
        58           N   tau(  58) = (   0.7500000   0.5000000   0.5000000  )
        59           Al  tau(  59) = (   0.5000000   0.7500000   0.7500000  )
        60           N   tau(  60) = (   0.7500000   0.7500000   0.7500000  )
        61           Al  tau(  61) = (   0.7500000   0.5000000   0.7500000  )
        62           N   tau(  62) = (   0.5000000   0.5000000   0.7500000  )
        63           Al  tau(  63) = (   0.7500000   0.7500000   0.5000000  )
        64           N   tau(  64) = (   0.5000000   0.7500000   0.5000000  )

     number of k points=     8  Gaussian smearing, width (Ry)=  0.0050
                       cart. coord. in units 2pi/alat
        k(    1) = (   0.0000000   0.0000000   0.0000000), wk =   0.2500000
        k(    2) = (   0.0000000   0.0000000  -0.5000000), wk =   0.2500000
        k(    3) = (   0.0000000  -0.5000000  -0.5000000), wk =   0.2500000
        k(    4) = (  -0.5000000  -0.5000000  -0.5000000), wk =   0.2500000
        k(    5) = (  -0.5000000   0.0000000   0.0000000), wk =   0.2500000
        k(    6) = (   0.0000000  -0.5000000   0.0000000), wk =   0.2500000
        k(    7) = (  -0.5000000   0.0000000   0.5000000), wk =   0.2500000
        k(    8) = (  -0.5000000   0.5000000   0.0000000), wk =   0.2500000

     Dense  grid:   231933 G-vectors     FFT dimensions: (  80,  80,  80)

     Estimated max dynamical RAM per process >     158.79 MB

     Estimated total dynamical RAM >       4.80 GB

     Check: negative core charge=   -0.000008

     Initial potential from superposition of free atoms

     starting charge     291.9297, renormalised to     292.0000
     Starting wfcs are  280 randomized atomic wfcs
     Checking if some PAW data can be deallocated... 

     total cpu time spent up to now is        2.8 secs

     Self-consistent Calculation

     iteration #  1     ecut=    60.00 Ry     beta= 0.20
     Davidson diagonalization with overlap
     ethr =  1.00E-02,  avg # of iterations =  2.4

     total cpu time spent up to now is        7.4 secs

     total energy              =   -2751.31757642 Ry
     estimated scf accuracy    <      14.91267550 Ry

     iteration #  2     ecut=    60.00 Ry     beta= 0.20
     Davidson diagonalization with overlap
     ethr =  5.11E-03,  avg # of iterations =  1.0

     total cpu time spent up to now is       11.1 secs

     total energy              =   -2747.89170333 Ry
     estimated scf accuracy    <       8.25676331 Ry

     iteration #  3     ecut=    60.00 Ry     beta= 0.20
     Davidson diagonalization with overlap
     ethr =  2.83E-03,  avg # of iterations =  2.0

     total cpu time spent up to now is       16.0 secs

     total energy              =   -2749.47806728 Ry
     estimated scf accuracy    <       0.54058556 Ry

     iteration #  4     ecut=    60.00 Ry     beta= 0.20
     Davidson diagonalization with overlap
     c_bands:  1 eigenvalues not converged
     ethr =  1.85E-04,  avg # of iterations = 12.5

     total cpu time spent up to now is       22.4 secs

     total energy              =   -2749.50814227 Ry
     estimated scf accuracy    <       0.31295777 Ry

     iteration #  5     ecut=    60.00 Ry     beta= 0.20
     Davidson diagonalization with overlap
     ethr =  1.07E-04,  avg # of iterations =  2.8

     total cpu time spent up to now is       26.6 secs

     total energy              =   -2749.48978796 Ry
     estimated scf accuracy    <       0.17337529 Ry

     iteration #  6     ecut=    60.00 Ry     beta= 0.20
     Davidson diagonalization with overlap
     ethr =  5.94E-05,  avg # of iterations =  1.8

     total cpu time spent up to now is       30.7 secs

     total energy              =   -2749.47986501 Ry
     estimated scf accuracy    <       0.06757314 Ry

     iteration #  7     ecut=    60.00 Ry     beta= 0.20
     Davidson diagonalization with overlap
     ethr =  2.31E-05,  avg # of iterations = 12.5

     total cpu time spent up to now is       36.6 secs

     total energy              =   -2749.48182057 Ry
     estimated scf accuracy    <       0.00841569 Ry

     iteration #  8     ecut=    60.00 Ry     beta= 0.20
     Davidson diagonalization with overlap
     c_bands:  1 eigenvalues not converged
     ethr =  2.88E-06,  avg # of iterations = 11.8

     total cpu time spent up to now is       44.1 secs

     total energy              =   -2749.48153925 Ry
     estimated scf accuracy    <       0.00387732 Ry

     iteration #  9     ecut=    60.00 Ry     beta= 0.20
     Davidson diagonalization with overlap
     ethr =  1.33E-06,  avg # of iterations =  2.5

     total cpu time spent up to now is       48.8 secs

     total energy              =   -2749.48196784 Ry
     estimated scf accuracy    <       0.00292246 Ry

     iteration # 10     ecut=    60.00 Ry     beta= 0.20
     Davidson diagonalization with overlap
     ethr =  1.00E-06,  avg # of iterations =  1.1

     total cpu time spent up to now is       52.6 secs

     total energy              =   -2749.48166955 Ry
     estimated scf accuracy    <       0.00094382 Ry

     iteration # 11     ecut=    60.00 Ry     beta= 0.20
     Davidson diagonalization with overlap
     ethr =  3.23E-07,  avg # of iterations =  3.6

     total cpu time spent up to now is       58.2 secs

     total energy              =   -2749.48178424 Ry
     estimated scf accuracy    <       0.00078502 Ry

     iteration # 12     ecut=    60.00 Ry     beta= 0.20
     Davidson diagonalization with overlap
     ethr =  2.69E-07,  avg # of iterations =  1.9

     total cpu time spent up to now is       62.3 secs

     total energy              =   -2749.48179646 Ry
     estimated scf accuracy    <       0.00005158 Ry

     iteration # 13     ecut=    60.00 Ry     beta= 0.20
     Davidson diagonalization with overlap
     ethr =  1.77E-08,  avg # of iterations =  4.5

     total cpu time spent up to now is       67.8 secs

     total energy              =   -2749.48179704 Ry
     estimated scf accuracy    <       0.00006077 Ry

     iteration # 14     ecut=    60.00 Ry     beta= 0.20
     Davidson diagonalization with overlap
     ethr =  1.77E-08,  avg # of iterations =  2.0

     total cpu time spent up to now is       72.3 secs

     total energy              =   -2749.48180012 Ry
     estimated scf accuracy    <       0.00001022 Ry

     iteration # 15     ecut=    60.00 Ry     beta= 0.20
     Davidson diagonalization with overlap
     ethr =  3.50E-09,  avg # of iterations =  2.0

     total cpu time spent up to now is       76.4 secs

     total energy              =   -2749.48180068 Ry
     estimated scf accuracy    <       0.00000210 Ry

     iteration # 16     ecut=    60.00 Ry     beta= 0.20
     Davidson diagonalization with overlap
     ethr =  7.19E-10,  avg # of iterations =  2.9

     total cpu time spent up to now is       81.4 secs

     total energy              =   -2749.48180067 Ry
     estimated scf accuracy    <       0.00000104 Ry

     iteration # 17     ecut=    60.00 Ry     beta= 0.20
     Davidson diagonalization with overlap
     ethr =  3.55E-10,  avg # of iterations =  2.0

     total cpu time spent up to now is       86.4 secs

     total energy              =   -2749.48180062 Ry
     estimated scf accuracy    <       0.00000158 Ry

     iteration # 18     ecut=    60.00 Ry     beta= 0.20
     Davidson diagonalization with overlap
     ethr =  3.55E-10,  avg # of iterations =  2.0

     total cpu time spent up to now is       91.1 secs

     End of self-consistent calculation

          k = 0.0000 0.0000 0.0000 ( 28991 PWs)   bands (ev):

   -43.8944 -43.8926 -43.5752 -43.5388 -20.4489 -20.4458 -20.3216 -20.3051
   -20.2002 -20.1938 -20.1796 -20.0827 -19.9781 -19.9138 -19.8395 -19.7817
    -5.6038  -4.1663  -4.1305  -4.1084  -4.0502  -3.9493  -3.8888  -2.9931
    -2.9586  -2.9449  -2.9262  -2.8705  -2.8611  -2.8369  -2.8156  -2.7851
    -2.6806  -2.6314  -2.5348  -2.5328  -2.4094  -2.2670  -2.1906  -1.8868
    -1.8208  -1.7814  -1.7052  -1.6213  -1.5810  -1.5615  -1.4960  -1.4868
     3.2257   3.4998   3.5301   3.8451   4.5876   4.6027   4.6404   5.4080
     5.4186   5.4467   5.4814   5.4905   5.5061   5.5264   5.5432   5.8289
     5.8739   5.8905   5.9178   5.9311   5.9801   6.0648   6.1185   6.1224
     6.1401   6.1827   6.2223   6.3310   6.4579   6.5044   6.5881   7.2170
     7.2810   7.2903   7.3689   7.3749   7.3911   7.3945   7.4486   7.4971
     7.5652   7.5810   7.6064   7.6134   7.6426   7.6809   7.6986   7.7701
     7.8655   7.9030   7.9594   8.0826   8.3056   8.5067   8.6978   8.8603
     8.8704   8.9660   9.0453   9.1362   9.1814   9.2020   9.4854   9.5439
     9.6249   9.6611   9.6942   9.7948   9.7955   9.8096   9.8509   9.8623
     9.9032  10.0051  10.0268  10.0514  10.1182  10.1507  10.1587  10.2238
    10.2568  10.2878  10.3427  10.3505  10.3659  10.3758  10.3960  10.4022
    10.4233  10.4266  10.4455  10.4681  10.5188  11.5330  11.5421  11.5506
    13.4704  13.8112  13.9696  14.4067  14.5699  14.6783  14.7801  15.0973
    15.4119  15.5194  15.8258  15.8964  16.1001  16.2999  16.6100  16.6844
    16.8854  17.1374  17.1890  17.2852  17.3755  17.3972  17.5195  17.5966
    17.6099  17.7143  17.7536  17.7683  18.3460  18.5661  18.7030

          k = 0.0000 0.0000-0.5000 ( 29078 PWs)   bands (ev):

   -43.8944 -43.8926 -43.5752 -43.5388 -20.4490 -20.4458 -20.3217 -20.3050
   -20.2000 -20.1940 -20.1796 -20.0826 -19.9781 -19.9138 -19.8395 -19.7818
    -5.1956  -5.1884  -3.8516  -3.7933  -3.7677  -3.7356  -3.7161  -3.6416
    -3.5695  -3.4735  -2.7546  -2.7355  -2.7336  -2.7051  -2.6492  -2.6181
    -2.5813  -2.5568  -2.4862  -2.4094  -2.1030  -2.0252  -2.0089  -1.9498
    -1.9296  -1.8354  -1.8043  -1.7420  -1.6821  -1.6558  -1.6419  -1.5930
     4.0524   4.0770   4.1422   4.1560   4.4288   4.4975   4.5378   4.6116
     4.9725   4.9852   5.0076   5.0323   5.2439   5.3109   5.3256   5.3395
     5.3496   5.4523   5.6864   5.8232   5.8911   5.9407   6.1241   6.2252
     6.4425   6.4716   6.5124   6.5409   6.6016   6.6503   6.7522   6.7672
     6.7825   6.9563   7.0505   7.0736   7.2105   7.2656   7.7934   7.8017
     7.8274   7.8846   8.0354   8.1110   8.1210   8.2146   8.6963   8.7014
     8.7316   8.7776   8.8070   8.8595   8.8959   8.9161   8.9505   8.9861
     9.0257   9.0398   9.0640   9.0672   9.1097   9.1185   9.1513   9.1689
     9.2172   9.2353   9.2853   9.3559   9.4013   9.4154   9.4623   9.4885
     9.5413   9.5877   9.6654   9.7524   9.8850   9.9152  10.0238  10.1727
    10.2078  10.2257  10.2492  10.2950  10.3335  10.3460  10.3778  10.3856
    10.4292  10.4542  10.4828  10.5632  10.9783  10.9945  11.0215  11.0345
    14.1431  14.1792  14.2989  14.3672  14.5479  14.5529  15.0178  15.0726
    15.1180  15.3509  15.6978  16.0349  16.8544  16.9086  16.9201  17.0157
    17.0549  17.1900  17.2980  17.3910  17.4413  17.5933  17.6268  17.6770
    18.2943  18.4393  18.4597  18.4660  18.6692  18.6812  18.7154

          k = 0.0000-0.5000-0.5000 ( 28876 PWs)   bands (ev):

   -43.8944 -43.8925 -43.5752 -43.5388 -20.4490 -20.4457 -20.3216 -20.3049
   -20.2000 -20.1941 -20.1796 -20.0826 -19.9781 -19.9138 -19.8394 -19.7817
    -4.8804  -4.8341  -4.7581  -4.6846  -3.5387  -3.4655  -3.4166  -3.4032
    -3.3493  -3.2988  -3.2374  -3.1690  -2.5489  -2.5239  -2.4349  -2.3889
    -2.3884  -2.3525  -2.3198  -2.2908  -2.2355  -2.1700  -2.1209  -2.0933
    -2.0465  -1.9152  -1.8863  -1.8260  -1.7913  -1.6443  -1.5749  -1.5295
     4.0422   4.1985   4.2184   4.3444   4.4108   4.4463   4.5470   4.6923
     5.0798   5.2159   5.2341   5.2801   5.2972   5.3509   5.3739   5.4099
     5.4677   5.5262   5.5502   5.5614   5.6169   5.6456   5.7437   5.7745
     5.8482   5.8821   5.9939   6.0301   6.3384   6.5434   6.7039   6.7876
     7.4148   7.4392   7.6848   7.7057   7.8000   7.8940   7.9262   7.9302
     7.9545   7.9822   8.0081   8.1125   8.2264   8.3842   8.4382   8.4766
     8.5199   8.5343   8.6153   8.6372   8.6565   8.6610   8.7085   8.7279
     8.8108   8.8618   8.8970   9.0392   9.2093   9.2535   9.2938   9.3242
     9.3537   9.4007   9.4680   9.5043   9.5545   9.6257   9.6551   9.6644
     9.7372   9.7626   9.7836   9.8012   9.8379   9.9072   9.9298   9.9529
     9.9978  10.0123  10.0715  10.0947  10.2249  10.2451  10.2543  10.3075
    10.4567  10.4615  10.5135  10.5969  11.0214  11.0747  11.1876  11.2643
    14.2593  14.3563  14.4748  14.4895  14.5793  14.6176  14.8759  14.9548
    15.0585  15.3432  15.7001  15.8780  16.8950  16.9836  17.0721  17.0940
    17.3827  17.4374  17.4840  17.6053  17.6596  17.6873  17.8968  18.0045
    18.0779  18.1626  18.2869  18.3299  18.3461  18.4322  18.5192

          k =-0.5000-0.5000-0.5000 ( 29080 PWs)   bands (ev):

   -43.8944 -43.8926 -43.5752 -43.5388 -20.4490 -20.4457 -20.3217 -20.3049
   -20.2000 -20.1941 -20.1796 -20.0827 -19.9781 -19.9138 -19.8394 -19.7817
    -4.5863  -4.5634  -4.5092  -4.4395  -4.4066  -4.3138  -4.1771  -4.0559
    -2.5281  -2.5038  -2.4909  -2.4508  -2.3803  -2.3342  -2.3302  -2.3187
    -2.3176  -2.3032  -2.2912  -2.2656  -2.2544  -2.2311  -2.1845  -2.1583
    -2.1116  -2.1004  -2.0594  -2.0445  -1.9859  -1.9408  -1.8700  -1.6574
     4.5044   4.5731   4.6154   4.6610   4.6795   4.7350   4.7451   4.7571
     4.7694   4.7836   4.8105   4.8421   4.8908   4.9256   4.9421   4.9758
     4.9922   5.0401   5.1487   5.3907   5.4238   5.5943   5.8386   5.9249
     6.9972   7.0359   7.0943   7.1637   7.2028   7.2136   7.2408   7.2529
     7.2810   7.3457   7.4342   7.4669   7.5412   7.5939   7.6117   7.6662
     7.6784   7.7023   7.7187   7.7445   7.7882   7.8587   7.9140   7.9709
     7.9985   8.0436   8.1006   8.1245   8.1944   8.2171   8.3392   8.5364
     8.8966   8.9309   9.0867   9.1244   9.2300   9.2863   9.3455   9.3973
     9.4104   9.4194   9.4360   9.4491   9.4567   9.5302   9.5465   9.5862
     9.6563   9.7426   9.8129   9.8215   9.9091  10.0114  10.1031  10.1233
    10.3684  10.4802  10.5494  10.6334  10.7228  10.7357  10.7817  10.8074
    10.8342  10.8598  10.8897  10.9207  10.9234  10.9633  11.0025  11.0598
    14.2429  14.2879  14.3778  14.4394  14.5097  14.5306  14.8119  14.8750
    14.9205  15.2063  15.5269  15.8887  17.4737  17.4907  17.5402  17.5613
    17.7138  17.7399  17.7725  17.7829  17.7987  17.8280  17.8559  17.8631
    17.8637  17.8827  17.8908  17.8945  18.0078  18.0413  18.0993

          k =-0.5000 0.0000 0.0000 ( 29078 PWs)   bands (ev):

   -43.8944 -43.8926 -43.5752 -43.5388 -20.4489 -20.4458 -20.3216 -20.3051
   -20.2002 -20.1938 -20.1796 -20.0827 -19.9781 -19.9138 -19.8395 -19.7817
    -5.2967  -5.0501  -3.8728  -3.8358  -3.8180  -3.7640  -3.7323  -3.6558
    -3.5038  -3.3422  -2.8682  -2.8362  -2.7755  -2.7495  -2.7211  -2.6669
    -2.5320  -2.4347  -2.3710  -2.3078  -2.0217  -2.0001  -1.9466  -1.9328
    -1.9263  -1.8975  -1.8488  -1.7985  -1.7346  -1.7098  -1.6096  -1.5632
     3.9872   4.1632   4.1718   4.2211   4.3176   4.3755   4.4278   4.7510
     4.7626   4.9674   5.2244   5.2289   5.2678   5.2810   5.3225   5.3375
     5.4256   5.4849   5.6805   5.6920   5.8336   5.9470   6.2035   6.2901
     6.3614   6.3958   6.4560   6.4782   6.6638   6.7031   6.7153   6.7570
     6.8011   6.8183   6.9756   7.0591   7.2199   7.4916   7.6025   7.6224
     8.0132   8.1000   8.1748   8.2041   8.2121   8.3573   8.4422   8.7110
     8.7477   8.7768   8.8265   8.8554   8.8837   8.9022   8.9096   8.9580
     8.9894   9.0012   9.0269   9.0476   9.0639   9.1022   9.1485   9.1584
     9.1697   9.1920   9.2061   9.2853   9.3677   9.4295   9.4426   9.5593
     9.5976   9.6101   9.7021   9.7222   9.8408  10.0244  10.1112  10.1577
    10.2023  10.2206  10.2484  10.3001  10.3534  10.3806  10.4013  10.4067
    10.4206  10.4225  10.4896  10.5782  10.8698  10.8778  11.1418  11.1530
    13.4753  14.2839  14.4047  14.5551  14.6289  14.7525  14.9131  15.1385
    15.3898  15.5162  15.6611  16.1453  16.6258  16.8166  16.8529  16.9492
    17.1106  17.2000  17.2374  17.3130  17.3896  17.4595  17.7163  17.7806
    17.8713  18.2933  18.4216  18.5555  18.5936  18.6090  18.6303

          k = 0.0000-0.5000 0.0000 ( 29078 PWs)   bands (ev):

   -43.8944 -43.8926 -43.5752 -43.5388 -20.4491 -20.4457 -20.3216 -20.3051
   -20.2003 -20.1936 -20.1796 -20.0826 -19.9781 -19.9139 -19.8394 -19.7818
    -5.2479  -5.1272  -3.8457  -3.8097  -3.7713  -3.7587  -3.7080  -3.6136
    -3.5903  -3.4444  -2.8506  -2.7668  -2.7431  -2.7232  -2.6537  -2.6055
    -2.5417  -2.5235  -2.4311  -2.4238  -2.0711  -2.0020  -1.9640  -1.9381
    -1.9173  -1.8762  -1.8548  -1.7478  -1.7143  -1.6717  -1.6384  -1.5532
     4.0283   4.1145   4.1317   4.2061   4.4252   4.4501   4.5387   4.5646
     4.8720   4.8809   5.0955   5.1394   5.2418   5.2774   5.3211   5.3314
     5.5125   5.5774   5.6262   5.6639   5.8556   5.9164   6.1578   6.3355
     6.4518   6.4996   6.5348   6.5582   6.5932   6.6251   6.6854   6.7153
     6.7991   6.8743   7.0154   7.1415   7.2317   7.2487   7.7161   7.7448
     7.9847   7.9962   8.0342   8.1150   8.1627   8.2091   8.5009   8.7168
     8.7442   8.7797   8.8374   8.8573   8.8780   8.9330   8.9827   9.0117
     9.0171   9.0368   9.0648   9.0715   9.0850   9.1160   9.1547   9.1855
     9.2301   9.2588   9.2854   9.2992   9.3359   9.3822   9.4537   9.4934
     9.6052   9.6336   9.7140   9.7727   9.8652   9.9029  10.0562  10.1526
    10.1745  10.2013  10.2396  10.3205  10.3308  10.3494  10.3597  10.3940
    10.4082  10.4511  10.4703  10.5581  10.9356  10.9487  11.0738  11.0903
    13.8521  14.2304  14.3199  14.4621  14.6166  14.6379  14.9831  15.0434
    15.1693  15.3441  15.9023  16.0283  16.8743  16.8845  17.0086  17.0397
    17.0905  17.1895  17.2139  17.2698  17.3849  17.6059  17.6279  17.7291
    18.3066  18.3564  18.3752  18.4236  18.4977  18.6151  18.6879

          k =-0.5000 0.0000 0.5000 ( 28876 PWs)   bands (ev):

   -43.8944 -43.8925 -43.5752 -43.5388 -20.4489 -20.4458 -20.3217 -20.3050
   -20.2000 -20.1940 -20.1796 -20.0826 -19.9781 -19.9138 -19.8395 -19.7818
    -4.9150  -4.8910  -4.6766  -4.6196  -3.5382  -3.5282  -3.4946  -3.4308
    -3.3126  -3.2902  -3.2764  -3.1761  -2.5347  -2.4699  -2.4456  -2.4106
    -2.3937  -2.3526  -2.2858  -2.2729  -2.1405  -2.1301  -2.0884  -2.0629
    -2.0383  -1.9467  -1.9087  -1.8280  -1.7793  -1.7120  -1.5897  -1.5778
     4.0826   4.1811   4.2140   4.2269   4.4235   4.4508   4.6468   4.8298
     5.0861   5.1871   5.2166   5.2466   5.3311   5.3601   5.3870   5.4142
     5.4406   5.4804   5.4889   5.5519   5.6538   5.6860   5.7304   5.7437
     5.7697   5.8639   6.0057   6.1165   6.1920   6.4098   6.7649   6.8452
     7.4468   7.4741   7.6699   7.7185   7.7846   7.8789   7.8993   7.9345
     7.9479   7.9814   7.9877   8.0773   8.1778   8.3484   8.4377   8.5264
     8.5658   8.5813   8.6256   8.6505   8.6987   8.7587   8.7830   8.8005
     8.8402   8.9195   8.9726   9.0548   9.1314   9.2247   9.2821   9.3233
     9.3583   9.4024   9.4644   9.4737   9.5277   9.6103   9.6263   9.6373
     9.7377   9.8010   9.8212   9.8429   9.8960   9.9038   9.9367   9.9467
     9.9785  10.0199  10.1005  10.1187  10.1635  10.2188  10.2739  10.2914
    10.3466  10.3842  10.4303  10.5885  11.0092  11.0540  11.2163  11.2559
    14.2560  14.2847  14.4029  14.4436  14.5311  14.6148  14.9468  15.0097
    15.1310  15.3558  15.5291  16.0708  16.8906  17.0247  17.2422  17.2854
    17.4042  17.5094  17.5200  17.5942  17.7071  17.7326  17.8116  18.0566
    18.0947  18.0992  18.1560  18.2904  18.3542  18.3667  18.5883

          k =-0.5000 0.5000 0.0000 ( 28876 PWs)   bands (ev):

   -43.8944 -43.8925 -43.5752 -43.5388 -20.4490 -20.4457 -20.3216 -20.3051
   -20.2003 -20.1936 -20.1796 -20.0826 -19.9781 -19.9138 -19.8394 -19.7818
    -4.9499  -4.8507  -4.7261  -4.5483  -3.5496  -3.5482  -3.4637  -3.4453
    -3.3647  -3.3376  -3.2454  -3.1702  -2.5112  -2.4973  -2.4174  -2.4016
    -2.3791  -2.3576  -2.3353  -2.2152  -2.1696  -2.1176  -2.0742  -2.0307
    -1.9888  -1.9689  -1.9053  -1.8358  -1.8014  -1.6660  -1.6547  -1.5875
     4.1443   4.1513   4.2205   4.3362   4.3954   4.5378   4.5592   4.7221
     5.0722   5.1742   5.2256   5.2585   5.2887   5.3488   5.4117   5.4203
     5.4442   5.4550   5.4788   5.4854   5.5098   5.5726   5.7679   5.8120
     5.8813   5.9213   5.9416   6.1604   6.1635   6.5223   6.7609   6.8807
     7.3794   7.5490   7.6065   7.7275   7.8047   7.8503   7.9302   7.9624
     7.9749   7.9982   8.0090   8.1092   8.2241   8.4119   8.4587   8.5183
     8.5427   8.5569   8.5936   8.6274   8.6823   8.7727   8.7892   8.8576
     8.8765   8.9321   8.9347   9.0311   9.0515   9.1908   9.2709   9.2874
     9.3419   9.3995   9.4833   9.5188   9.5533   9.5652   9.5904   9.7161
     9.7473   9.7630   9.7781   9.8478   9.8920   9.8964   9.9046   9.9291
     9.9662  10.0378  10.0880  10.1331  10.2150  10.2313  10.2734  10.2811
    10.3214  10.3531  10.4509  10.6041  10.9444  11.1188  11.2228  11.2418
    14.2027  14.3176  14.3326  14.5072  14.5693  14.6391  14.8617  15.0358
    15.1678  15.2140  15.6597  16.0621  16.9207  17.0586  17.1989  17.3018
    17.3984  17.4319  17.5563  17.6242  17.6792  17.8069  17.8421  18.0778
    18.0949  18.0975  18.1569  18.2255  18.3338  18.4719  18.6200

     the Fermi energy is    14.3115 ev

!    total energy              =   -2749.48180073 Ry
     total all-electron energy =    -23938.732828 Ry
     estimated scf accuracy    <       0.00000013 Ry
     smearing contrib. (-TS)   =      -0.00362760 Ry
     internal energy E=F+TS    =   -2749.47817313 Ry

     The total energy is F=E-TS. E is the sum of the following terms:
     one-electron contribution =    -216.18022713 Ry
     hartree contribution      =     321.97992277 Ry
     xc contribution           =    -339.84292051 Ry
     ewald contribution        =   -1028.50524852 Ry
     one-center paw contrib.   =   -1486.92969973 Ry

     convergence has been achieved in  18 iterations

     Forces acting on atoms (cartesian axes, Ry/au):

     atom    1 type  1   force =     0.00258480   -0.00214137   -0.00185555
     atom    2 type  2   force =     0.00470284   -0.07458756    0.06994309
     atom    3 type  1   force =     0.00017153   -0.00279477   -0.00240172
     atom    4 type  2   force =    -0.00123365   -0.06270950    0.07847152
     atom    5 type  1   force =     0.00307140    0.00350446   -0.00231577
     atom    6 type  2   force =    -0.00786738    0.00064471   -0.05877391
     atom    7 type  3   force =    -0.00300452   -0.00413038    0.00386109
     atom    8 type  2   force =    -0.05705248    0.00320017    0.00158801
     atom    9 type  3   force =     0.04719780    0.00424992    0.03664973
     atom   10 type  2   force =     0.06151016   -0.00903424   -0.07369695
     atom   11 type  1   force =     0.00125287    0.00165780    0.00203719
     atom   12 type  2   force =    -0.00016857    0.06213132   -0.07958194
     atom   13 type  3   force =    -0.03750954    0.04475210    0.00744086
     atom   14 type  2   force =    -0.07037303    0.00050199    0.06554710
     atom   15 type  1   force =     0.00440177   -0.00297574    0.00082260
     atom   16 type  2   force =    -0.00202513    0.05327142   -0.00166288
     atom   17 type  1   force =    -0.00027193    0.00251437   -0.00508104
     atom   18 type  2   force =     0.00008936    0.07902447   -0.06109854
     atom   19 type  1   force =     0.00012370    0.00287316   -0.00619086
     atom   20 type  2   force =    -0.00164182    0.05720678    0.01056199
     atom   21 type  3   force =    -0.00086505   -0.04921200   -0.04571969
     atom   22 type  2   force =    -0.05207606   -0.00013163    0.00032162
     atom   23 type  1   force =    -0.00010929    0.00255757   -0.00048910
     atom   24 type  2   force =    -0.00196354   -0.00305818    0.00133368
     atom   25 type  1   force =    -0.00044064   -0.00111275    0.00546328
     atom   26 type  2   force =    -0.00139544    0.00968816    0.05601006
     atom   27 type  1   force =     0.00094740   -0.00224940    0.00581245
     atom   28 type  2   force =    -0.00020481   -0.06011790   -0.00994504
     atom   29 type  1   force =     0.00039387   -0.00300176    0.00349888
     atom   30 type  2   force =    -0.00322436   -0.00035523   -0.00010217
     atom   31 type  1   force =     0.00479666    0.00281777    0.00109085
     atom   32 type  2   force =    -0.00171459   -0.05240871   -0.00125865
     atom   33 type  1   force =    -0.00131044   -0.00250164    0.00258621
     atom   34 type  2   force =    -0.00268102   -0.00052438    0.00297467
     atom   35 type  1   force =    -0.00027020   -0.00752495    0.00325647
     atom   36 type  2   force =     0.00219017    0.00153401    0.00238148
     atom   37 type  1   force =    -0.00388025    0.00009320   -0.00275177
     atom   38 type  2   force =     0.00687842    0.00010129   -0.00370553
     atom   39 type  1   force =    -0.00000314   -0.00263962   -0.00047139
     atom   40 type  2   force =     0.05623847    0.00347260    0.00089261
     atom   41 type  1   force =    -0.00453826    0.00064295   -0.00189014
     atom   42 type  2   force =    -0.06267424   -0.00054162   -0.00481729
     atom   43 type  1   force =    -0.00073323    0.00054980   -0.00342171
     atom   44 type  2   force =     0.00158724    0.00147134   -0.00248451
     atom   45 type  1   force =     0.00016935    0.00027060    0.00226084
     atom   46 type  2   force =     0.06508538    0.00041431    0.00540511
     atom   47 type  1   force =    -0.00486145    0.00066232    0.00047429
     atom   48 type  2   force =     0.00234878    0.00424829   -0.00083951
     atom   49 type  1   force =     0.00094825    0.00293976   -0.00549893
     atom   50 type  2   force =     0.00019146    0.00079397    0.00088163
     atom   51 type  1   force =     0.00016192    0.00762742   -0.00033866
     atom   52 type  2   force =     0.00236824   -0.00102126    0.00179932
     atom   53 type  1   force =    -0.00054381   -0.00000414   -0.00022070
     atom   54 type  2   force =     0.05220426   -0.00054183   -0.00080125
     atom   55 type  1   force =    -0.00040592    0.00238665   -0.00040251
     atom   56 type  2   force =     0.00172238   -0.00366006    0.00072228
     atom   57 type  1   force =     0.00088457   -0.00057415    0.00536874
     atom   58 type  2   force =    -0.00000287    0.00027556   -0.00084647
     atom   59 type  1   force =    -0.00041227   -0.00086288    0.00015598
     atom   60 type  2   force =     0.00196391   -0.00168025   -0.00188581
     atom   61 type  1   force =    -0.00074663    0.00001566    0.00020071
     atom   62 type  2   force =     0.00316256   -0.00077208    0.00071986
     atom   63 type  1   force =    -0.00553475   -0.00098224    0.00053501
     atom   64 type  2   force =     0.00239079   -0.00424362   -0.00051923

     Total force =     0.333635     Total SCF correction =     0.000740


     Computing stress (Cartesian axis) and pressure

          total   stress  (Ry/bohr**3)                   (kbar)     P=       35.61
   0.00024882  -0.00000404  -0.00003494           36.60       -0.59       -5.14
  -0.00000404   0.00024167  -0.00006977           -0.59       35.55      -10.26
  -0.00003494  -0.00006977   0.00023575           -5.14      -10.26       34.68


     BFGS Geometry Optimization
     Energy error            =      0.0E+00 Ry
     Gradient error          =      8.0E-02 Ry/Bohr

     number of scf cycles    =   1
     number of bfgs steps    =   0

     energy             new  =   -2749.4818007271 Ry

     new trust radius        =       0.1023594535 bohr
     new conv_thr            =       0.0000010000 Ry


ATOMIC_POSITIONS (angstrom)
Al            0.0013678170       -0.0011331642       -0.0009819129
N             2.0481136337       -0.0394700387        0.0370122916
Al            0.0000907683        2.0441460734        2.0443540667
N             2.0449721793        2.0124405638        2.0871503387
Al            2.0472503169        0.0018544791        2.0443995460
N            -0.0041632390        0.0003411667        2.0145231839
Ti            2.0440350788        2.0434392987        0.0020432035
N            -0.0301908715        2.0473184593        0.0008403382
Ti            0.0249759985        0.0022489613        4.1106442002
N             2.0781747761       -0.0047807165        4.0522512511
Al            0.0006629890        2.0465022695        6.1379530321
N             2.0455357981        2.0785034779        6.0947620523
Ti            2.0257758054        0.0236817892        6.1408125332
N            -0.0372398064        0.0002656397        6.1715610292
Al            2.0479543170        2.0440503044        4.0916853025
N            -0.0010716521        2.0738150200        4.0903700435
Al           -0.0001439005        4.0925805499       -0.0026887682
N             2.0456722866        4.1330679501       -0.0323319565
Al            0.0000654610        6.1383954088        2.0423489360
N             2.0447561880        6.1671475255        2.0512141625
Ti            2.0451672328        4.0652081291        2.0214311833
N            -0.0275574638        4.0911803432        2.0457951933
Al            2.0455671667        6.1382284053       -0.0002588214
N            -0.0010390626        6.1352566795        0.0007057525
Al           -0.0002331761        4.0906611564        4.0941410441
N             2.0448865674        4.0963767556        4.1208892492
Al            0.0005013435        6.1356846700        6.1399508176
N             2.0455166205        6.1050619791        6.1316123123
Al            2.0458334246        4.0896615344        6.1387265270
N            -0.0017062598        4.0910620221        6.1368209325
Al            2.0481632838        6.1383661008        4.0918272517
N            -0.0009073229        6.1091415033        4.0905839527
Al            4.0905565427       -0.0013238133        0.0013685651
N             6.1354562649       -0.0002774909        0.0015741301
Al            4.0911070143        2.0416429669        2.0473482518
N             6.1380339887        2.0464367612        2.0468852261
Al            6.1348216628        0.0000493207        2.0441688247
N             4.0948899055        0.0000535992        2.0436641189
Al            6.1368733397        2.0442281738       -0.0002494465
N             4.1210101163        2.0474626201        0.0004723483
Al            4.0888484549        0.0003402335        4.0902497834
N             6.1037092215       -0.0002866130        4.0887008025
Al            4.0908619916        2.0459159422        6.1350643097
N             6.1377149287        2.0464035973        6.1355602539
Al            6.1369646173        0.0001431950        6.1380713834
N             4.1256917023        0.0002192433        6.1397352593
Al            6.1343024291        2.0459754843        4.0915009847
N             4.0924929232        2.0478730977        4.0908057503
Al            4.0917517918        4.0928056531       -0.0029099108
N             6.1369763158        4.0916701516        0.0004665410
Al            4.0913356844        6.1409112554        2.0454457908
N             6.1381282192        6.1363345715        2.0465771587
Al            6.1365872265        4.0912478088        2.0455082087
N             4.1188753056        4.0909632744        2.0452009977
Al            6.1366601985        6.1381379595       -0.0002129997
N             4.0921614440        6.1349381778        0.0003822131
Al            4.0917180947        4.0909461717        4.0940910140
N             6.1368734811        4.0913958204        4.0908020681
Al            4.0910318337        6.1364183822        6.1369575398
N             6.1379142570        6.1359858476        6.1358770732
Al            6.1364799013        4.0912582878        6.1369812090
N             4.0929235557        4.0908414320        6.1372559329
Al            6.1339461372        6.1363552195        4.0915331133
N             4.0925151515        6.1346293726        4.0909752360



     Writing config-only to output data dir ../output/relax_sqs_all_x/tmp_x0875/TiAlN_x0875_relax.save/
     NEW-OLD atomic charge density approx. for the potential

     Check: negative core charge=   -0.000009

     total cpu time spent up to now is      105.1 secs

     Self-consistent Calculation

     iteration #  1     ecut=    60.00 Ry     beta= 0.20
     Davidson diagonalization with overlap
     c_bands:  2 eigenvalues not converged
     ethr =  1.00E-06,  avg # of iterations = 17.1

     total cpu time spent up to now is      117.6 secs

     total energy              =   -2749.57207847 Ry
     estimated scf accuracy    <       0.06357710 Ry

     iteration #  2     ecut=    60.00 Ry     beta= 0.20
     Davidson diagonalization with overlap
     ethr =  2.18E-05,  avg # of iterations =  1.0

     total cpu time spent up to now is      121.5 secs

     total energy              =   -2749.56373778 Ry
     estimated scf accuracy    <       0.04090782 Ry

     iteration #  3     ecut=    60.00 Ry     beta= 0.20
     Davidson diagonalization with overlap
     ethr =  1.40E-05,  avg # of iterations =  2.0

     total cpu time spent up to now is      125.6 secs

     total energy              =   -2749.56178578 Ry
     estimated scf accuracy    <       0.01343796 Ry

     iteration #  4     ecut=    60.00 Ry     beta= 0.20
     Davidson diagonalization with overlap
     ethr =  4.60E-06,  avg # of iterations =  6.2

     total cpu time spent up to now is      130.5 secs

     total energy              =   -2749.56265292 Ry
     estimated scf accuracy    <       0.00267616 Ry

     iteration #  5     ecut=    60.00 Ry     beta= 0.20
     Davidson diagonalization with overlap
     ethr =  9.16E-07,  avg # of iterations =  6.2

     total cpu time spent up to now is      135.4 secs

     total energy              =   -2749.56233102 Ry
     estimated scf accuracy    <       0.00119450 Ry

     iteration #  6     ecut=    60.00 Ry     beta= 0.20
     Davidson diagonalization with overlap
     ethr =  4.09E-07,  avg # of iterations =  2.8

     total cpu time spent up to now is      140.3 secs

     total energy              =   -2749.56245017 Ry
     estimated scf accuracy    <       0.00032217 Ry

     iteration #  7     ecut=    60.00 Ry     beta= 0.20
     Davidson diagonalization with overlap
     ethr =  1.10E-07,  avg # of iterations =  2.0

     total cpu time spent up to now is      144.5 secs

     total energy              =   -2749.56239240 Ry
     estimated scf accuracy    <       0.00019511 Ry

     iteration #  8     ecut=    60.00 Ry     beta= 0.20
     Davidson diagonalization with overlap
     ethr =  6.68E-08,  avg # of iterations =  2.8

     total cpu time spent up to now is      149.1 secs

     total energy              =   -2749.56241535 Ry
     estimated scf accuracy    <       0.00006248 Ry

     iteration #  9     ecut=    60.00 Ry     beta= 0.20
     Davidson diagonalization with overlap
     ethr =  2.14E-08,  avg # of iterations =  2.5

     total cpu time spent up to now is      153.3 secs

     total energy              =   -2749.56241010 Ry
     estimated scf accuracy    <       0.00002088 Ry

     iteration # 10     ecut=    60.00 Ry     beta= 0.20
     Davidson diagonalization with overlap
     ethr =  7.15E-09,  avg # of iterations =  3.9

     total cpu time spent up to now is      158.1 secs

     total energy              =   -2749.56241245 Ry
     estimated scf accuracy    <       0.00001244 Ry

     iteration # 11     ecut=    60.00 Ry     beta= 0.20
     Davidson diagonalization with overlap
     ethr =  4.26E-09,  avg # of iterations =  2.0

     total cpu time spent up to now is      162.2 secs

     total energy              =   -2749.56241352 Ry
     estimated scf accuracy    <       0.00000197 Ry

     iteration # 12     ecut=    60.00 Ry     beta= 0.20
     Davidson diagonalization with overlap
     ethr =  6.74E-10,  avg # of iterations =  2.0

     total cpu time spent up to now is      166.4 secs

     End of self-consistent calculation

          k = 0.0000 0.0000 0.0000 ( 28991 PWs)   bands (ev):

   -44.1990 -44.1681 -43.8082 -43.7564 -20.7690 -20.7364 -20.5557 -20.5209
   -20.4506 -20.4433 -20.4376 -20.2864 -20.1747 -20.0927 -20.0404 -19.9353
    -5.6137  -4.1810  -4.1539  -4.1177  -4.0646  -3.9867  -3.9095  -2.9987
    -2.9757  -2.9540  -2.9194  -2.8789  -2.8628  -2.8559  -2.8382  -2.8252
    -2.6651  -2.5940  -2.5704  -2.5224  -2.4648  -2.3704  -2.2683  -1.8803
    -1.8274  -1.7826  -1.7241  -1.6210  -1.5524  -1.5431  -1.4906  -1.4686
     3.2223   3.5085   3.5603   3.8824   4.5905   4.6051   4.6346   5.4384
     5.4637   5.4680   5.4874   5.5047   5.5339   5.5397   5.5426   5.8100
     5.8756   5.8928   5.9066   5.9417   5.9642   6.0228   6.1020   6.1189
     6.1255   6.1778   6.2383   6.3341   6.4528   6.5102   6.5811   7.2482
     7.2944   7.3205   7.3246   7.3551   7.3759   7.4005   7.4363   7.5289
     7.5587   7.5815   7.5994   7.6306   7.6458   7.6799   7.6883   7.7184
     7.8408   7.9264   7.9585   8.0410   8.2729   8.5124   8.7075   8.8566
     8.8730   8.9624   8.9977   9.1016   9.1430   9.2209   9.5135   9.5528
     9.6384   9.6837   9.7257   9.8173   9.8324   9.8530   9.8546   9.8604
     9.9422   9.9760  10.0012  10.0494  10.0769  10.0949  10.1252  10.1694
    10.2764  10.2943  10.3563  10.3723  10.4000  10.4054  10.4198  10.4464
    10.4592  10.4829  10.4948  10.5213  10.5537  11.5233  11.5322  11.5456
    13.1516  13.5037  13.7172  14.1125  14.3067  14.4021  14.5306  14.8359
    15.1493  15.2369  15.7410  15.8335  15.9580  16.3630  16.5259  16.6305
    16.7529  16.8538  16.9463  17.0240  17.0727  17.2783  17.4826  17.5348
    17.6157  17.6277  17.7480  17.7759  18.2036  18.3417  18.7105

          k = 0.0000 0.0000-0.5000 ( 29078 PWs)   bands (ev):

   -44.1990 -44.1681 -43.8082 -43.7564 -20.7691 -20.7364 -20.5558 -20.5210
   -20.4505 -20.4432 -20.4378 -20.2863 -20.1747 -20.0927 -20.0404 -19.9353
    -5.2046  -5.2008  -3.8900  -3.8152  -3.7936  -3.7565  -3.7455  -3.6556
    -3.5582  -3.4550  -2.8121  -2.7987  -2.7476  -2.7373  -2.6800  -2.6439
    -2.6063  -2.5531  -2.4666  -2.3990  -2.0897  -2.0463  -2.0349  -1.9571
    -1.9237  -1.8391  -1.8122  -1.7539  -1.6673  -1.6609  -1.6344  -1.6002
     4.0564   4.0629   4.1395   4.1935   4.4536   4.5140   4.5685   4.6482
     4.9689   4.9769   5.0133   5.0277   5.2585   5.3119   5.3345   5.3574
     5.3748   5.4736   5.6461   5.8175   5.8986   5.9334   6.1470   6.1969
     6.4550   6.5002   6.5306   6.5404   6.5761   6.7087   6.7419   6.7776
     6.7991   6.9540   6.9918   7.0454   7.1474   7.2037   7.7944   7.7996
     7.8453   7.9026   7.9863   8.0605   8.0739   8.1921   8.6792   8.7417
     8.7682   8.8088   8.8305   8.8518   8.8997   8.9264   8.9668   8.9996
     9.0265   9.0436   9.0669   9.0871   9.0935   9.1317   9.1435   9.1554
     9.2202   9.2351   9.3211   9.3237   9.3607   9.3738   9.4219   9.4657
     9.5209   9.6177   9.7037   9.8059   9.9381   9.9612  10.0730  10.1984
    10.2081  10.2372  10.2908  10.3350  10.3587  10.3715  10.3803  10.3835
    10.4407  10.4566  10.4763  10.5166  10.9868  10.9922  10.9995  11.0182
    13.8641  13.9100  13.9638  14.0170  14.2618  14.2919  14.7607  14.8192
    14.8945  15.0964  15.5625  15.9020  16.6357  16.6986  16.7811  16.9032
    16.9242  16.9641  17.0374  17.2077  17.2956  17.5386  17.6330  17.6512
    18.2597  18.3828  18.4756  18.4817  18.6744  18.6911  18.7137

          k = 0.0000-0.5000-0.5000 ( 28876 PWs)   bands (ev):

   -44.1990 -44.1681 -43.8082 -43.7564 -20.7690 -20.7364 -20.5557 -20.5209
   -20.4504 -20.4432 -20.4379 -20.2863 -20.1747 -20.0927 -20.0404 -19.9353
    -4.8896  -4.8340  -4.7818  -4.7009  -3.5324  -3.4814  -3.4287  -3.4255
    -3.3651  -3.3564  -3.3086  -3.1900  -2.6304  -2.5788  -2.4641  -2.3880
    -2.3781  -2.3310  -2.3027  -2.2385  -2.2056  -2.1451  -2.1142  -2.0859
    -2.0812  -1.9744  -1.8891  -1.8423  -1.7775  -1.6663  -1.6036  -1.5359
     4.0342   4.1841   4.2191   4.3664   4.4238   4.4664   4.5948   4.7465
     5.0726   5.2370   5.2639   5.3043   5.3408   5.3577   5.3860   5.4171
     5.4832   5.5218   5.5656   5.5772   5.6485   5.6770   5.7193   5.7671
     5.8317   5.8430   5.9533   5.9731   6.2798   6.4997   6.6692   6.8086
     7.3848   7.4144   7.6790   7.7006   7.8173   7.8980   7.9266   7.9439
     7.9571   8.0020   8.0223   8.1308   8.2819   8.3550   8.4361   8.4669
     8.4804   8.4877   8.6070   8.6255   8.6614   8.6877   8.7086   8.7271
     8.7426   8.8352   8.8771   9.0527   9.2260   9.2625   9.2922   9.3466
     9.3640   9.4260   9.4780   9.5216   9.5903   9.6262   9.6869   9.7064
     9.7512   9.7829   9.7994   9.8210   9.8659   9.9164   9.9394   9.9636
    10.0104  10.0452  10.0738  10.1318  10.1875  10.2253  10.2496  10.3420
    10.4186  10.4536  10.5062  10.5327  11.0770  11.1097  11.1690  11.2204
    13.8970  14.0134  14.2044  14.2252  14.2734  14.3429  14.6695  14.7119
    14.8072  15.1029  15.5697  15.7704  16.6685  16.7215  16.8645  16.9030
    17.0773  17.1846  17.3321  17.4469  17.5662  17.6046  17.8387  17.9172
    18.0658  18.1260  18.2322  18.3531  18.4222  18.5089  18.5924

          k =-0.5000-0.5000-0.5000 ( 29080 PWs)   bands (ev):

   -44.1990 -44.1681 -43.8082 -43.7564 -20.7691 -20.7364 -20.5557 -20.5209
   -20.4504 -20.4432 -20.4379 -20.2863 -20.1748 -20.0927 -20.0404 -19.9353
    -4.5711  -4.5623  -4.5092  -4.4616  -4.4379  -4.3243  -4.2359  -4.0928
    -2.6298  -2.5978  -2.5721  -2.5009  -2.4655  -2.3162  -2.2865  -2.2826
    -2.2743  -2.2697  -2.2503  -2.2339  -2.2198  -2.1962  -2.1834  -2.1557
    -2.1293  -2.0884  -2.0854  -2.0361  -2.0312  -1.9459  -1.9077  -1.7258
     4.5005   4.5599   4.6348   4.6763   4.6989   4.7551   4.7781   4.7857
     4.7931   4.8062   4.8287   4.8337   4.9213   4.9444   4.9496   5.0060
     5.0194   5.0331   5.1427   5.3339   5.4269   5.6071   5.8473   5.8623
     7.0590   7.1101   7.1234   7.1343   7.1720   7.1944   7.2061   7.2169
     7.2932   7.3395   7.3923   7.4042   7.5074   7.5707   7.6016   7.6554
     7.6610   7.6827   7.7310   7.7461   7.7878   7.8470   7.9048   7.9670
     7.9902   8.0416   8.0920   8.1333   8.1948   8.2139   8.3483   8.5754
     8.8859   8.9355   9.0921   9.1367   9.2226   9.3024   9.3642   9.3860
     9.4011   9.4387   9.4548   9.4784   9.5003   9.5444   9.5676   9.5957
     9.6770   9.7519   9.8147   9.8251   9.8916   9.9968  10.0933  10.1045
    10.4382  10.5356  10.5822  10.6336  10.7423  10.7436  10.8026  10.8367
    10.8518  10.8750  10.8993  10.9114  10.9214  10.9398  10.9599  10.9765
    13.8829  13.9507  14.0920  14.1612  14.2441  14.2713  14.5823  14.6619
    14.6794  14.9902  15.4081  15.7744  17.0584  17.0922  17.0992  17.1528
    17.3327  17.3997  17.6102  17.7159  17.7407  17.7473  17.8094  17.8228
    17.8429  17.8552  17.8786  17.9046  17.9160  18.0260  18.1229

          k =-0.5000 0.0000 0.0000 ( 29078 PWs)   bands (ev):

   -44.1990 -44.1681 -43.8082 -43.7564 -20.7691 -20.7364 -20.5557 -20.5209
   -20.4506 -20.4433 -20.4376 -20.2864 -20.1748 -20.0927 -20.0404 -19.9353
    -5.2912  -5.0873  -3.8828  -3.8245  -3.8226  -3.7989  -3.7649  -3.6864
    -3.5263  -3.3654  -2.9523  -2.7834  -2.7766  -2.7549  -2.7024  -2.6976
    -2.5430  -2.4482  -2.4143  -2.3467  -2.0665  -2.0132  -1.9863  -1.9673
    -1.9148  -1.8954  -1.8701  -1.7859  -1.7272  -1.7129  -1.5655  -1.5576
     3.9782   4.1664   4.1924   4.2663   4.3719   4.3799   4.4241   4.7632
     4.7766   4.9811   5.2203   5.2426   5.2647   5.2767   5.3186   5.3337
     5.4198   5.4709   5.6573   5.7034   5.8000   5.9778   6.2301   6.2763
     6.3901   6.4066   6.4759   6.5241   6.6453   6.7073   6.7592   6.7777
     6.8056   6.8612   6.9624   7.0212   7.1274   7.3638   7.6603   7.6715
     7.9493   8.0767   8.0925   8.1525   8.2280   8.3558   8.4346   8.7177
     8.7444   8.8016   8.8491   8.8741   8.9095   8.9260   8.9320   8.9574
     8.9693   9.0145   9.0241   9.0425   9.0447   9.0737   9.1135   9.1415
     9.1795   9.2221   9.2630   9.2877   9.3234   9.4166   9.4543   9.4954
     9.5317   9.6348   9.6931   9.7434   9.9054  10.0438  10.1249  10.1940
    10.2342  10.2381  10.2829  10.3432  10.3718  10.3912  10.3957  10.4457
    10.4601  10.4709  10.5039  10.5199  10.9141  10.9268  11.0757  11.1018
    13.1567  13.9413  14.1173  14.2788  14.3533  14.4730  14.6656  14.8850
    15.1414  15.2362  15.5409  15.9903  16.4712  16.6067  16.7246  16.8717
    16.8955  16.9757  17.1092  17.2015  17.3299  17.4956  17.5334  17.7272
    17.8670  18.1650  18.3413  18.4379  18.5931  18.6457  18.6559

          k = 0.0000-0.5000 0.0000 ( 29078 PWs)   bands (ev):

   -44.1990 -44.1681 -43.8082 -43.7564 -20.7691 -20.7364 -20.5557 -20.5209
   -20.4508 -20.4433 -20.4375 -20.2863 -20.1747 -20.0927 -20.0404 -19.9353
    -5.2536  -5.1440  -3.8870  -3.8300  -3.8050  -3.7841  -3.7226  -3.6214
    -3.5791  -3.4399  -2.8889  -2.7905  -2.7602  -2.7555  -2.6992  -2.6108
    -2.5694  -2.5128  -2.4362  -2.4232  -2.0662  -2.0342  -2.0044  -1.9598
    -1.9224  -1.9071  -1.8505  -1.7472  -1.6903  -1.6711  -1.6388  -1.5285
     3.9984   4.1375   4.1403   4.2571   4.4231   4.4600   4.5741   4.6013
     4.8800   4.8837   5.0980   5.1201   5.2546   5.2744   5.3293   5.3559
     5.5091   5.5715   5.6160   5.6709   5.8468   5.9261   6.1601   6.3237
     6.4592   6.5126   6.5429   6.5748   6.6053   6.6557   6.7185   6.7410
     6.7966   6.8612   6.9867   7.0899   7.1701   7.1761   7.7495   7.7600
     7.9336   7.9713   8.0250   8.0595   8.1565   8.2136   8.4835   8.7465
     8.7566   8.7962   8.8400   8.8459   8.8748   8.9360   9.0034   9.0194
     9.0282   9.0322   9.0671   9.0820   9.1008   9.1056   9.1550   9.1876
     9.2107   9.2444   9.2649   9.2993   9.3193   9.3457   9.4159   9.5133
     9.5599   9.6508   9.7561   9.8362   9.9172   9.9703  10.1028  10.1541
    10.2199  10.2328  10.2543  10.3090  10.3493  10.3672  10.3900  10.4050
    10.4351  10.4430  10.4924  10.5206  10.9480  10.9602  11.0269  11.0605
    13.5384  13.8488  14.0457  14.1767  14.3555  14.3677  14.7337  14.8273
    14.9016  15.0976  15.7539  15.8969  16.6353  16.7437  16.7942  16.8628
    16.8910  16.9925  17.0934  17.1571  17.3293  17.4588  17.5604  17.7028
    18.2640  18.3521  18.3802  18.4504  18.4702  18.6226  18.7127

          k =-0.5000 0.0000 0.5000 ( 28876 PWs)   bands (ev):

   -44.1990 -44.1681 -43.8082 -43.7564 -20.7690 -20.7364 -20.5557 -20.5209
   -20.4505 -20.4432 -20.4378 -20.2863 -20.1747 -20.0927 -20.0404 -19.9353
    -4.9151  -4.8796  -4.7152  -4.6614  -3.5256  -3.5090  -3.4867  -3.4263
    -3.3671  -3.3400  -3.3243  -3.2402  -2.5944  -2.5449  -2.4939  -2.4195
    -2.3715  -2.3149  -2.2778  -2.2622  -2.1198  -2.1182  -2.0815  -2.0582
    -2.0051  -1.9690  -1.9138  -1.8721  -1.8039  -1.7345  -1.5955  -1.5876
     4.0983   4.1882   4.2086   4.2116   4.4516   4.4783   4.6448   4.8449
     5.0886   5.2074   5.2637   5.2854   5.3613   5.3859   5.4067   5.4452
     5.4593   5.4970   5.5378   5.5834   5.6356   5.6629   5.6955   5.7390
     5.7621   5.8577   5.9575   6.1062   6.1749   6.3502   6.7190   6.8063
     7.4544   7.4810   7.6344   7.7148   7.8557   7.8657   7.9378   7.9395
     7.9478   7.9745   7.9849   8.0392   8.2018   8.2863   8.4057   8.5178
     8.5467   8.5811   8.5917   8.6197   8.6731   8.7137   8.7674   8.7852
     8.8363   8.9273   8.9909   9.0515   9.1344   9.2439   9.3172   9.3472
     9.3813   9.4138   9.4771   9.4931   9.5387   9.5889   9.6191   9.6460
     9.7574   9.8365   9.8665   9.8799   9.9135   9.9525   9.9693   9.9821
     9.9945  10.0412  10.1177  10.1411  10.1897  10.2377  10.2738  10.2946
    10.3242  10.3626  10.4030  10.5002  11.0339  11.0611  11.2143  11.2423
    13.8862  13.9525  14.1216  14.1849  14.2421  14.3511  14.7096  14.7675
    14.9052  15.1139  15.4025  15.9277  16.6435  16.7317  16.9695  17.0632
    17.1499  17.1964  17.3861  17.4889  17.5999  17.6609  17.8392  17.9104
    18.0423  18.1222  18.2116  18.2358  18.3353  18.4361  18.6717

          k =-0.5000 0.5000 0.0000 ( 28876 PWs)   bands (ev):

   -44.1990 -44.1681 -43.8082 -43.7564 -20.7690 -20.7364 -20.5557 -20.5209
   -20.4507 -20.4433 -20.4374 -20.2863 -20.1747 -20.0927 -20.0404 -19.9353
    -4.9447  -4.8444  -4.7509  -4.6121  -3.5391  -3.5353  -3.4507  -3.4367
    -3.3843  -3.3718  -3.3144  -3.2508  -2.5467  -2.5399  -2.4828  -2.4126
    -2.3780  -2.3438  -2.3158  -2.2028  -2.1418  -2.0939  -2.0703  -2.0163
    -2.0008  -1.9769  -1.9517  -1.8682  -1.8644  -1.6729  -1.6400  -1.5707
     4.1247   4.1661   4.2483   4.3358   4.4073   4.5446   4.5544   4.7364
     5.0786   5.2178   5.2476   5.2976   5.3233   5.3863   5.4213   5.4318
     5.4565   5.4682   5.4892   5.5162   5.5653   5.6081   5.7235   5.8197
     5.8422   5.8748   5.9195   6.1159   6.1661   6.4809   6.7103   6.8343
     7.3837   7.5534   7.6138   7.7385   7.8406   7.8647   7.9221   7.9529
     7.9863   7.9974   8.0234   8.1244   8.1988   8.3766   8.4197   8.4521
     8.5153   8.5551   8.5722   8.5977   8.6156   8.7322   8.7895   8.8268
     8.8892   8.9306   8.9582   9.0130   9.0635   9.2103   9.2765   9.3019
     9.3510   9.4241   9.4763   9.4993   9.5648   9.5941   9.6237   9.7446
     9.7656   9.7817   9.8161   9.8792   9.9423   9.9490   9.9546   9.9774
    10.0107  10.0368  10.1130  10.1505  10.2078  10.2404  10.2839  10.3036
    10.3401  10.3558  10.4195  10.4651  10.9926  11.0917  11.2038  11.2493
    13.8421  13.9570  14.0556  14.2495  14.2892  14.3690  14.6262  14.8254
    14.9260  14.9693  15.5458  15.9191  16.6200  16.7764  16.9380  17.0301
    17.1921  17.2732  17.3756  17.4198  17.5607  17.7070  17.8152  17.9022
    18.0971  18.1340  18.1902  18.2306  18.3370  18.5192  18.6960

     the Fermi energy is    13.9800 ev

!    total energy              =   -2749.56241308 Ry
     total all-electron energy =    -23938.813440 Ry
     estimated scf accuracy    <       0.00000082 Ry
     smearing contrib. (-TS)   =      -0.00265284 Ry
     internal energy E=F+TS    =   -2749.55976024 Ry

     The total energy is F=E-TS. E is the sum of the following terms:
     one-electron contribution =    -201.64061725 Ry
     hartree contribution      =     314.35824470 Ry
     xc contribution           =    -339.81721724 Ry
     ewald contribution        =   -1035.51479521 Ry
     one-center paw contrib.   =   -1486.94537524 Ry

     convergence has been achieved in  12 iterations

     Forces acting on atoms (cartesian axes, Ry/au):

     atom    1 type  1   force =    -0.00484195   -0.00641874    0.00606628
     atom    2 type  2   force =     0.00560754   -0.03588387    0.03232384
     atom    3 type  1   force =    -0.00984001   -0.00656667   -0.00029350
     atom    4 type  2   force =    -0.00186840   -0.03278969    0.04116084
     atom    5 type  1   force =     0.00354906   -0.00435236   -0.00351286
     atom    6 type  2   force =    -0.00811299    0.00231226   -0.02210399
     atom    7 type  3   force =    -0.00198343   -0.00330677    0.00290045
     atom    8 type  2   force =    -0.01885726    0.00476824    0.00060264
     atom    9 type  3   force =     0.02607659    0.00288086    0.01778899
     atom   10 type  2   force =     0.03248718   -0.00765112   -0.03231959
     atom   11 type  1   force =    -0.00847299    0.01200797    0.00146407
     atom   12 type  2   force =    -0.00145065    0.02828519   -0.04089827
     atom   13 type  3   force =    -0.01860767    0.02689529    0.00788792
     atom   14 type  2   force =    -0.03609523    0.00192081    0.03649095
     atom   15 type  1   force =     0.00780101    0.00543510   -0.00004088
     atom   16 type  2   force =    -0.00188999    0.01859651   -0.00026346
     atom   17 type  1   force =    -0.00981043    0.00691468   -0.00899478
     atom   18 type  2   force =    -0.00045747    0.03902016   -0.02910933
     atom   19 type  1   force =    -0.00012270    0.00534746   -0.00632162
     atom   20 type  2   force =    -0.00201837    0.01620222    0.00935585
     atom   21 type  3   force =     0.00111625   -0.02754920   -0.02872429
     atom   22 type  2   force =    -0.01553665   -0.00259034   -0.00338693
     atom   23 type  1   force =     0.00077709    0.00462207    0.00021943
     atom   24 type  2   force =    -0.00245019   -0.00434210   -0.00028724
     atom   25 type  1   force =    -0.00013318    0.00094862    0.00791097
     atom   26 type  2   force =     0.00021464    0.00633826    0.01396556
     atom   27 type  1   force =    -0.00097804   -0.01187014    0.00750387
     atom   28 type  2   force =    -0.00213113   -0.01591315   -0.00939538
     atom   29 type  1   force =    -0.00009507    0.00357886   -0.00394540
     atom   30 type  2   force =    -0.00486581   -0.00251587    0.00359550
     atom   31 type  1   force =     0.00810777   -0.00632531   -0.00113795
     atom   32 type  2   force =    -0.00102727   -0.01694333    0.00063720
     atom   33 type  1   force =     0.00475466   -0.00680867    0.00282414
     atom   34 type  2   force =    -0.00367847   -0.00144811    0.00371078
     atom   35 type  1   force =     0.00957451   -0.01024619    0.00652983
     atom   36 type  2   force =     0.00185889    0.00042623    0.00332566
     atom   37 type  1   force =    -0.00263360    0.00020729   -0.00225010
     atom   38 type  2   force =     0.00788592    0.00234176   -0.00574125
     atom   39 type  1   force =    -0.00053249   -0.00245675    0.00014647
     atom   40 type  2   force =     0.01760439    0.00317901    0.00084972
     atom   41 type  1   force =     0.00104883   -0.00077568   -0.00239178
     atom   42 type  2   force =    -0.02183091    0.00009994   -0.00392960
     atom   43 type  1   force =     0.00818236    0.00159093   -0.00632949
     atom   44 type  2   force =     0.00286705    0.00253061   -0.00341156
     atom   45 type  1   force =    -0.00655382    0.00034264    0.00331944
     atom   46 type  2   force =     0.02242670    0.00257340    0.00687874
     atom   47 type  1   force =    -0.00702512    0.00055893   -0.00033760
     atom   48 type  2   force =     0.00137165    0.00471359   -0.00085419
     atom   49 type  1   force =     0.00990879    0.00685078   -0.00833239
     atom   50 type  2   force =     0.00012417    0.00185678   -0.00052204
     atom   51 type  1   force =    -0.00007352    0.00885227    0.00035546
     atom   52 type  2   force =     0.00194476   -0.00048890    0.00153357
     atom   53 type  1   force =    -0.00062433   -0.00032572   -0.00063364
     atom   54 type  2   force =     0.01542773   -0.00277217   -0.00262726
     atom   55 type  1   force =    -0.00061209    0.00230710    0.00004422
     atom   56 type  2   force =     0.00262754   -0.00390527    0.00051903
     atom   57 type  1   force =     0.00028982    0.00083758    0.00695307
     atom   58 type  2   force =    -0.00115247   -0.00001488    0.00052813
     atom   59 type  1   force =    -0.00010905   -0.00060288   -0.00019523
     atom   60 type  2   force =     0.00290656   -0.00239266   -0.00165707
     atom   61 type  1   force =     0.00003948   -0.00015567    0.00056099
     atom   62 type  2   force =     0.00480894   -0.00255211    0.00252243
     atom   63 type  1   force =    -0.00683361   -0.00052973   -0.00022108
     atom   64 type  2   force =     0.00191646   -0.00484935   -0.00030631

     Total force =     0.159856     Total SCF correction =     0.003521


     Computing stress (Cartesian axis) and pressure

          total   stress  (Ry/bohr**3)                   (kbar)     P=       28.93
   0.00019391  -0.00000652  -0.00004218           28.53       -0.96       -6.20
  -0.00000652   0.00019672  -0.00009065           -0.96       28.94      -13.34
  -0.00004218  -0.00009065   0.00019929           -6.20      -13.34       29.32

     Energy error            =      8.1E-02 Ry
     Gradient error          =      4.1E-02 Ry/Bohr

     number of scf cycles    =   2
     number of bfgs steps    =   1

     energy             old  =   -2749.4818007271 Ry
     energy             new  =   -2749.5624130758 Ry

     CASE: energy            _new < energy            _old

     new trust radius        =       0.1049635455 bohr
     new conv_thr            =       0.0000004116 Ry


ATOMIC_POSITIONS (angstrom)
Al           -0.0031369036       -0.0073887402        0.0047323732
N             2.0537230148       -0.0776341764        0.0715306610
Al           -0.0093229845        2.0377155324        2.0439505697
N             2.0431201558        1.9778449138        2.1305655674
Al            2.0508053808       -0.0021345402        2.0409176623
N            -0.0123331100        0.0025881897        1.9903605025
Ti            2.0419826257        2.0400622488        0.0050174472
N            -0.0511568204        2.0520475446        0.0014983728
Ti            0.0523525202        0.0052242681        4.1295469821
N             2.1124196014       -0.0125678051        4.0175455660
Al           -0.0073866165        2.0580852679        6.1394588474
N             2.0441381061        2.1087562678        6.0515416309
Ti            2.0060452442        0.0517175824        6.1487451446
N            -0.0753914645        0.0021305460        6.2098455719
Al            2.0556487543        2.0491030749        4.0916880973
N            -0.0029847037        2.0943385038        4.0900329831
Al           -0.0095519377        4.0993300324       -0.0115609555
N             2.0452387821        4.1744615224       -0.0633212637
Al           -0.0000457298        6.1436624676        2.0359798990
N             2.0427397482        6.1855789511        2.0607115481
Ti            2.0461920140        4.0363187848        1.9915946630
N            -0.0450899721        4.0886932001        2.0425683652
Al            2.0463057171        6.1427847582       -0.0000736340
N            -0.0034854018        6.1309428949        0.0004987005
Al           -0.0003831678        4.0915127965        4.1019948947
N             2.0450209574        4.1029400273        4.1371178982
Al           -0.0003868931        6.1242034919        6.1474326424
N             2.0434654701        6.0867589382        6.1221085278
Al            2.0457624741        4.0929355005        6.1351269175
N            -0.0065300097        4.0886347913        6.1402586649
Al            2.0561715990        6.1324528325        4.0907932051
N            -0.0019784258        6.0902450413        4.0911299461
Al            4.0950426555       -0.0079711420        0.0042047319
N             6.1317971812       -0.0016908950        0.0052791224
Al            4.1002615071        2.0314478663        2.0537670541
N             6.1399256719        2.0469231159        2.0501911987
Al            6.1321019742        0.0002525683        2.0418738989
N             4.1027919171        0.0023011593        2.0379775402
Al            6.1363632872        2.0417410869       -0.0001332284
N             4.1407348535        2.0506837923        0.0013315227
Al            4.0896214010       -0.0003697524        4.0878631209
N             6.0796091766       -0.0002185273        4.0846923278
Al            4.0986597903        2.0474673984        6.1288289209
N             6.1405412550        2.0489018482        6.1321667738
Al            6.1306975101        0.0004850917        6.1413652527
N             4.1504851924        0.0027045778        6.1465977169
Al            6.1273275215        2.0465444675        4.0912018925
N             4.0939261278        2.0526032860        4.0899449985
Al            4.1012885045        4.0995156360       -0.0111691192
N             6.1371049759        4.0934886324        0.0000115980
Al            4.0912735390        6.1497768044        2.0457689073
N             6.1401112027        6.1358143485        2.0481374016
Al            6.1359616638        4.0909356988        2.0448901967
N             4.1363100517        4.0882811062        2.0426443633
Al            6.1360533832        6.1404688544       -0.0001911762
N             4.0947653162        6.1310119988        0.0009160412
Al            4.0920407191        4.0917189450        4.1010227915
N             6.1357697673        4.0913956186        4.0912646320
Al            4.0909063935        6.1357970882        6.1367785464
N             6.1407976230        6.1336090451        6.1341941606
Al            6.1364796365        4.0911100200        6.1375286279
N             4.0976897001        4.0883582414        6.1397080409
Al            6.1271202865        6.1357978878        4.0913486903
N             4.0944721905        6.1297694232        4.0906554545



     Writing config-only to output data dir ../output/relax_sqs_all_x/tmp_x0875/TiAlN_x0875_relax.save/
     NEW-OLD atomic charge density approx. for the potential

     Check: negative core charge=   -0.000009

     total cpu time spent up to now is      180.5 secs

     Self-consistent Calculation

     iteration #  1     ecut=    60.00 Ry     beta= 0.20
     Davidson diagonalization with overlap
     ethr =  1.00E-06,  avg # of iterations = 17.2

     total cpu time spent up to now is      193.1 secs

     total energy              =   -2749.59772292 Ry
     estimated scf accuracy    <       0.04368109 Ry

     iteration #  2     ecut=    60.00 Ry     beta= 0.20
     Davidson diagonalization with overlap
     ethr =  1.50E-05,  avg # of iterations =  1.0

     total cpu time spent up to now is      196.9 secs

     total energy              =   -2749.59195285 Ry
     estimated scf accuracy    <       0.02752464 Ry

     iteration #  3     ecut=    60.00 Ry     beta= 0.20
     Davidson diagonalization with overlap
     ethr =  9.43E-06,  avg # of iterations =  2.0

     total cpu time spent up to now is      201.0 secs

     total energy              =   -2749.58979882 Ry
     estimated scf accuracy    <       0.01013186 Ry

     iteration #  4     ecut=    60.00 Ry     beta= 0.20
     Davidson diagonalization with overlap
     ethr =  3.47E-06,  avg # of iterations =  2.2

     total cpu time spent up to now is      205.3 secs

     total energy              =   -2749.59074257 Ry
     estimated scf accuracy    <       0.00165802 Ry

     iteration #  5     ecut=    60.00 Ry     beta= 0.20
     Davidson diagonalization with overlap
     ethr =  5.68E-07,  avg # of iterations =  3.8

     total cpu time spent up to now is      209.6 secs

     total energy              =   -2749.59059542 Ry
     estimated scf accuracy    <       0.00061444 Ry

     iteration #  6     ecut=    60.00 Ry     beta= 0.20
     Davidson diagonalization with overlap
     ethr =  2.10E-07,  avg # of iterations =  2.5

     total cpu time spent up to now is      214.4 secs

     total energy              =   -2749.59068081 Ry
     estimated scf accuracy    <       0.00014738 Ry

     iteration #  7     ecut=    60.00 Ry     beta= 0.20
     Davidson diagonalization with overlap
     ethr =  5.05E-08,  avg # of iterations =  2.2

     total cpu time spent up to now is      218.5 secs

     total energy              =   -2749.59065230 Ry
     estimated scf accuracy    <       0.00009779 Ry

     iteration #  8     ecut=    60.00 Ry     beta= 0.20
     Davidson diagonalization with overlap
     ethr =  3.35E-08,  avg # of iterations =  2.0

     total cpu time spent up to now is      223.1 secs

     total energy              =   -2749.59066470 Ry
     estimated scf accuracy    <       0.00003150 Ry

     iteration #  9     ecut=    60.00 Ry     beta= 0.20
     Davidson diagonalization with overlap
     ethr =  1.08E-08,  avg # of iterations =  2.0

     total cpu time spent up to now is      227.2 secs

     total energy              =   -2749.59065737 Ry
     estimated scf accuracy    <       0.00002100 Ry

     iteration # 10     ecut=    60.00 Ry     beta= 0.20
     Davidson diagonalization with overlap
     ethr =  7.19E-09,  avg # of iterations =  2.2

     total cpu time spent up to now is      231.8 secs

     total energy              =   -2749.59065991 Ry
     estimated scf accuracy    <       0.00000320 Ry

     iteration # 11     ecut=    60.00 Ry     beta= 0.20
     Davidson diagonalization with overlap
     ethr =  1.10E-09,  avg # of iterations =  3.5

     total cpu time spent up to now is      236.4 secs

     total energy              =   -2749.59066027 Ry
     estimated scf accuracy    <       0.00000135 Ry

     iteration # 12     ecut=    60.00 Ry     beta= 0.20
     Davidson diagonalization with overlap
     ethr =  4.63E-10,  avg # of iterations =  3.4

     total cpu time spent up to now is      241.3 secs

     total energy              =   -2749.59066027 Ry
     estimated scf accuracy    <       0.00000073 Ry

     iteration # 13     ecut=    60.00 Ry     beta= 0.20
     Davidson diagonalization with overlap
     ethr =  2.49E-10,  avg # of iterations =  2.0

     total cpu time spent up to now is      245.4 secs

     End of self-consistent calculation

          k = 0.0000 0.0000 0.0000 ( 28991 PWs)   bands (ev):

   -44.4281 -44.3702 -43.9927 -43.9122 -20.9945 -20.9633 -20.7334 -20.6669
   -20.6622 -20.6358 -20.6067 -20.4526 -20.3001 -20.2385 -20.1999 -20.0377
    -5.6330  -4.2292  -4.2013  -4.1431  -4.0759  -4.0015  -3.9103  -3.0304
    -3.0095  -2.9978  -2.9501  -2.9074  -2.8837  -2.8580  -2.8403  -2.8350
    -2.6321  -2.5903  -2.5722  -2.5141  -2.4972  -2.4081  -2.3123  -1.8529
    -1.8279  -1.7824  -1.7009  -1.6040  -1.5472  -1.5286  -1.4962  -1.4666
     3.2247   3.5212   3.5822   3.9074   4.5819   4.6038   4.6219   5.4595
     5.4733   5.4919   5.5029   5.5136   5.5327   5.5448   5.5604   5.7896
     5.8502   5.8682   5.8906   5.9303   5.9446   5.9975   6.0984   6.1138
     6.1272   6.1803   6.2400   6.3326   6.4438   6.5254   6.5989   7.2562
     7.2853   7.3023   7.3204   7.3518   7.3695   7.4100   7.4346   7.5187
     7.5400   7.5679   7.6015   7.6368   7.6563   7.6775   7.6944   7.7072
     7.8333   7.9523   7.9745   8.0054   8.2738   8.5330   8.7354   8.8536
     8.8782   8.9562   8.9689   9.0789   9.1207   9.2767   9.5455   9.5773
     9.6575   9.7026   9.7653   9.8251   9.8397   9.8494   9.8603   9.8711
     9.9601   9.9621   9.9944  10.0504  10.0554  10.0904  10.1249  10.1711
    10.2656  10.3476  10.3533  10.3800  10.4111  10.4294  10.4494  10.4581
    10.4782  10.5166  10.5256  10.5511  10.5753  11.5164  11.5238  11.5532
    12.8769  13.2597  13.5300  13.9037  14.1163  14.1868  14.3554  14.6514
    14.9628  15.0189  15.6451  15.8343  15.8528  16.3436  16.3803  16.4933
    16.5815  16.6719  16.7389  16.7880  16.8234  17.1746  17.3982  17.5269
    17.6019  17.6360  17.7557  17.7673  17.8970  18.3205  18.6895

          k = 0.0000 0.0000-0.5000 ( 29078 PWs)   bands (ev):

   -44.4282 -44.3702 -43.9927 -43.9122 -20.9945 -20.9633 -20.7334 -20.6671
   -20.6622 -20.6357 -20.6067 -20.4525 -20.3001 -20.2385 -20.1998 -20.0378
    -5.2348  -5.2135  -3.9311  -3.8587  -3.8283  -3.7908  -3.7681  -3.6657
    -3.5660  -3.4331  -2.8665  -2.8372  -2.7630  -2.7585  -2.7060  -2.6729
    -2.6321  -2.5458  -2.4536  -2.3888  -2.0743  -2.0609  -2.0374  -1.9554
    -1.9075  -1.8494  -1.8084  -1.7456  -1.6621  -1.6577  -1.6269  -1.5995
     4.0543   4.0711   4.1498   4.2314   4.4642   4.5036   4.5873   4.6634
     4.9546   4.9587   5.0127   5.0170   5.2518   5.2819   5.3114   5.3712
     5.3955   5.5023   5.6259   5.8428   5.9192   5.9390   6.1439   6.1740
     6.4469   6.4865   6.5321   6.5531   6.5944   6.7292   6.7533   6.7889
     6.8347   6.9357   6.9668   7.0402   7.1062   7.1611   7.7829   7.7936
     7.8565   7.9191   7.9422   8.0418   8.0454   8.1907   8.6563   8.7847
     8.8031   8.8275   8.8513   8.8698   8.9031   8.9440   8.9771   9.0036
     9.0246   9.0346   9.0534   9.0796   9.0964   9.1066   9.1453   9.1468
     9.2157   9.2276   9.2944   9.3171   9.3401   9.3628   9.4245   9.4526
     9.5563   9.6636   9.7446   9.8438   9.9712  10.0017  10.1011  10.1883
    10.2081  10.2557  10.3169  10.3400  10.3788  10.3847  10.3880  10.4051
    10.4483  10.4573  10.4926  10.5390  10.9685  10.9936  11.0107  11.0208
    13.5535  13.7107  13.7377  13.7628  14.0620  14.1070  14.5727  14.6378
    14.7324  14.9173  15.4825  15.8066  16.3547  16.4430  16.5586  16.6575
    16.7661  16.9118  16.9432  17.0152  17.1721  17.4063  17.6535  17.7068
    18.2288  18.3117  18.4625  18.5085  18.6434  18.6690  18.6940

          k = 0.0000-0.5000-0.5000 ( 28876 PWs)   bands (ev):

   -44.4281 -44.3701 -43.9927 -43.9122 -20.9945 -20.9633 -20.7333 -20.6672
   -20.6620 -20.6357 -20.6068 -20.4525 -20.3001 -20.2385 -20.1998 -20.0377
    -4.9308  -4.8384  -4.8156  -4.7093  -3.5681  -3.4898  -3.4660  -3.4547
    -3.3855  -3.3792  -3.3630  -3.1928  -2.7007  -2.5950  -2.4543  -2.3985
    -2.3787  -2.3397  -2.2801  -2.2121  -2.1958  -2.1601  -2.1338  -2.0777
    -2.0752  -1.9993  -1.8736  -1.8241  -1.7655  -1.6857  -1.5988  -1.5498
     4.0426   4.1796   4.2131   4.3709   4.4171   4.4748   4.6274   4.7862
     5.0464   5.2505   5.2738   5.3166   5.3536   5.3680   5.3961   5.4239
     5.5175   5.5209   5.5647   5.5917   5.6490   5.6653   5.7108   5.7759
     5.8173   5.8239   5.9164   5.9723   6.2510   6.4608   6.6381   6.8542
     7.3290   7.4280   7.6554   7.7141   7.8023   7.9026   7.9285   7.9350
     7.9780   8.0056   8.0208   8.1352   8.3236   8.3387   8.3854   8.4492
     8.4692   8.5278   8.5966   8.6139   8.6509   8.6878   8.7195   8.7399
     8.7599   8.8207   8.8803   9.0694   9.2435   9.2736   9.2936   9.3562
     9.3664   9.4381   9.4909   9.5389   9.6115   9.6238   9.7126   9.7363
     9.7642   9.8102   9.8222   9.8489   9.8816   9.9175   9.9396   9.9784
    10.0178  10.0225  10.0778  10.1506  10.1821  10.2137  10.2468  10.3709
    10.3996  10.4723  10.4915  10.5096  11.1022  11.1259  11.1773  11.2241
    13.5790  13.7445  13.9890  14.0289  14.0678  14.1498  14.5080  14.5474
    14.6256  14.9384  15.4921  15.6978  16.4601  16.4735  16.6297  16.6745
    16.7002  16.9641  17.1522  17.3782  17.4281  17.5867  17.7812  17.8681
    18.0121  18.1282  18.1976  18.4131  18.4859  18.5676  18.5957

          k =-0.5000-0.5000-0.5000 ( 29080 PWs)   bands (ev):

[...]
    -2.5399  -2.4619  -2.4393  -2.3511  -2.0490  -2.0185  -1.9985  -1.9897
    -1.9247  -1.8923  -1.8605  -1.7553  -1.7220  -1.6731  -1.5941  -1.5660
     4.0171   4.1365   4.2344   4.2839   4.3646   4.3914   4.4319   4.7164
     4.7284   5.0001   5.2064   5.2372   5.2620   5.2743   5.3088   5.3235
     5.4276   5.4804   5.6750   5.7106   5.8282   6.0018   6.2147   6.2320
     6.3671   6.3823   6.4855   6.5589   6.6454   6.6835   6.7725   6.7930
     6.8307   6.8930   6.9526   7.0018   7.1360   7.3390   7.7104   7.7149
     7.9426   8.0170   8.1029   8.1430   8.2202   8.3317   8.4301   8.6802
     8.7508   8.8106   8.8432   8.8945   8.9044   8.9372   8.9649   8.9699
     8.9832   8.9988   9.0159   9.0193   9.0511   9.1029   9.1156   9.1335
     9.1685   9.2032   9.2577   9.3140   9.3847   9.4244   9.4868   9.4958
     9.5396   9.6855   9.7124   9.8066   9.9940  10.0485  10.1250  10.1730
    10.2425  10.2550  10.3017  10.3459  10.3650  10.3948  10.4154  10.4426
    10.4478  10.4704  10.5114  10.5411  10.9411  10.9494  10.9920  11.0911
    12.8686  13.6238  13.9243  14.0992  14.2164  14.2922  14.5727  14.7689
    15.0489  15.0912  15.6848  15.9887  16.3197  16.3974  16.5119  16.6744
    16.7124  16.8151  16.9222  17.1384  17.2925  17.4411  17.5978  17.6627
    17.8109  18.0141  18.2796  18.4195  18.6147  18.6671  18.6962

          k = 0.0000-0.5000 0.0000 ( 29078 PWs)   bands (ev):

   -44.4102 -44.2816 -43.9853 -43.8264 -20.9988 -20.9221 -20.7065 -20.6533
   -20.6432 -20.5620 -20.5099 -20.4117 -20.2201 -20.1837 -20.1413 -19.9327
    -5.2974  -5.1731  -3.9335  -3.8839  -3.8647  -3.8098  -3.7441  -3.6289
    -3.5981  -3.4325  -2.9010  -2.8050  -2.7857  -2.7735  -2.7354  -2.6184
    -2.5977  -2.5014  -2.4455  -2.4283  -2.0657  -2.0332  -2.0083  -1.9714
    -1.9169  -1.8903  -1.8361  -1.7338  -1.7024  -1.6862  -1.6162  -1.5375
     4.0066   4.1461   4.1545   4.2962   4.4013   4.4734   4.5776   4.6165
     4.8425   4.8541   5.0780   5.1153   5.2187   5.2534   5.2862   5.3424
     5.5290   5.6118   5.6279   5.7130   5.8680   5.9598   6.1417   6.2981
     6.4432   6.5056   6.5354   6.5831   6.6086   6.6572   6.7272   6.8026
     6.8161   6.8740   7.0004   7.0843   7.1352   7.1569   7.7490   7.7733
     7.8929   7.9469   8.0118   8.0371   8.1833   8.2479   8.4995   8.7239
     8.7969   8.8098   8.8336   8.8516   8.8997   8.9358   9.0013   9.0051
     9.0316   9.0350   9.0517   9.0587   9.0920   9.1089   9.1360   9.1722
     9.2047   9.2350   9.2890   9.3024   9.3136   9.3562   9.4467   9.5229
     9.5756   9.7206   9.8165   9.8981   9.9745  10.0608  10.1220  10.1490
    10.2033  10.2223  10.2712  10.3016  10.3383  10.3730  10.3912  10.4044
    10.4284  10.4470  10.5253  10.5383  10.9283  10.9411  11.0092  11.0603
    13.2656  13.4519  13.8582  13.9940  14.1820  14.2503  14.6227  14.7254
    14.8203  15.0260  15.8489  15.9315  16.3123  16.5315  16.5925  16.6076
    16.7462  16.8732  16.9702  17.1054  17.2745  17.4181  17.4798  17.7524
    18.2268  18.2740  18.3643  18.4326  18.5033  18.6143  18.6917

          k =-0.5000 0.0000 0.5000 ( 28876 PWs)   bands (ev):

   -44.4102 -44.2815 -43.9853 -43.8264 -20.9988 -20.9221 -20.7065 -20.6533
   -20.6432 -20.5619 -20.5099 -20.4117 -20.2200 -20.1837 -20.1412 -19.9327
    -4.9870  -4.9236  -4.7328  -4.6649  -3.5813  -3.5693  -3.5579  -3.4417
    -3.3810  -3.3403  -3.3054  -3.2430  -2.5906  -2.5277  -2.4760  -2.4427
    -2.4131  -2.3258  -2.2655  -2.2555  -2.1465  -2.1428  -2.1096  -2.0774
    -2.0023  -1.9796  -1.9108  -1.8800  -1.7750  -1.7040  -1.6145  -1.5910
     4.1141   4.1847   4.2164   4.2241   4.4344   4.4797   4.6109   4.8648
     5.0376   5.1717   5.2807   5.3082   5.3586   5.3959   5.4083   5.4646
     5.4857   5.5138   5.5546   5.5702   5.6295   5.6589   5.6995   5.7239
     5.7734   5.8725   5.9536   6.1315   6.2003   6.3531   6.6778   6.8067
     7.4774   7.5454   7.6141   7.6830   7.8451   7.9058   7.9284   7.9472
     7.9658   7.9876   8.0078   8.0446   8.1853   8.2526   8.4001   8.4780
     8.5169   8.5741   8.6199   8.6424   8.6652   8.7465   8.7717   8.7966
     8.8394   8.9508   8.9743   9.0302   9.1606   9.2383   9.2914   9.3363
     9.3816   9.4256   9.4808   9.5063   9.5478   9.5912   9.6367   9.6760
     9.7766   9.8243   9.8774   9.9049   9.9140   9.9504   9.9589  10.0006
    10.0321  10.0706  10.1034  10.1138  10.2055  10.2535  10.3120  10.3273
    10.3366  10.3691  10.4098  10.4255  11.0301  11.0761  11.2250  11.2564
    13.4928  13.6510  13.9156  14.0433  14.0613  14.2394  14.6189  14.6500
    14.8527  15.0338  15.5338  15.9404  16.3400  16.4935  16.7394  16.7552
    16.8904  17.0053  17.2185  17.3996  17.5739  17.6051  17.7629  17.8747
    18.0479  18.1586  18.2181  18.2687  18.3435  18.4874  18.5925

          k =-0.5000 0.5000 0.0000 ( 28876 PWs)   bands (ev):

   -44.4102 -44.2815 -43.9853 -43.8264 -20.9988 -20.9221 -20.7065 -20.6533
   -20.6432 -20.5620 -20.5099 -20.4117 -20.2200 -20.1837 -20.1413 -19.9327
    -5.0037  -4.8974  -4.7796  -4.6067  -3.6016  -3.5840  -3.5013  -3.4760
    -3.4021  -3.3760  -3.3052  -3.2474  -2.5317  -2.5145  -2.4698  -2.4157
    -2.4037  -2.3605  -2.3337  -2.2067  -2.1722  -2.1024  -2.0774  -2.0463
    -2.0118  -1.9916  -1.9698  -1.8943  -1.8213  -1.6532  -1.6386  -1.5580
     4.1528   4.1778   4.2465   4.3261   4.4237   4.4935   4.5474   4.7404
     5.0345   5.2155   5.2362   5.3187   5.3340   5.3927   5.4128   5.4427
     5.4498   5.4750   5.4907   5.5557   5.5889   5.6339   5.6926   5.8091
     5.8127   5.9171   5.9269   6.1228   6.1916   6.4812   6.6910   6.8191
     7.4151   7.5593   7.6706   7.7630   7.8508   7.8709   7.9121   7.9372
     7.9755   7.9983   8.0350   8.1339   8.1573   8.3107   8.4072   8.4195
     8.5200   8.5380   8.5866   8.6453   8.6559   8.7213   8.8052   8.8355
     8.8767   8.9311   8.9435   8.9853   9.0739   9.2164   9.2512   9.3005
     9.3645   9.4492   9.4732   9.5390   9.5772   9.6249   9.6485   9.7186
     9.7773   9.7931   9.8197   9.8794   9.9422   9.9557   9.9624   9.9904
    10.0102  10.0385  10.1452  10.1911  10.2315  10.2479  10.2980  10.3189
    10.3379  10.3798  10.4126  10.4395  11.0158  11.0790  11.2098  11.2556
    13.4517  13.6215  13.8828  14.0779  14.1325  14.2395  14.5280  14.7399
    14.8336  14.9220  15.6929  15.9324  16.2930  16.5137  16.7162  16.7826
    16.9158  17.1060  17.2225  17.2871  17.4923  17.6521  17.7330  17.8452
    18.1382  18.1647  18.2372  18.2820  18.3753  18.5440  18.5910

     the Fermi energy is    13.6977 ev

!    total energy              =   -2749.59988086 Ry
     total all-electron energy =    -23938.850908 Ry
     estimated scf accuracy    <       0.00000002 Ry
     smearing contrib. (-TS)   =      -0.00161127 Ry
     internal energy E=F+TS    =   -2749.59826959 Ry

     The total energy is F=E-TS. E is the sum of the following terms:
     one-electron contribution =    -190.31158943 Ry
     hartree contribution      =     308.51946281 Ry
     xc contribution           =    -339.84123566 Ry
     ewald contribution        =   -1040.98993609 Ry
     one-center paw contrib.   =   -1486.97497123 Ry

     convergence has been achieved in  10 iterations

     Forces acting on atoms (cartesian axes, Ry/au):

     atom    1 type  1   force =     0.00068005    0.00047598    0.00075439
     atom    2 type  2   force =    -0.00080230   -0.00011666    0.00061481
     atom    3 type  1   force =     0.00105712   -0.00064576    0.00005321
     atom    4 type  2   force =     0.00015836   -0.00075525    0.00068830
     atom    5 type  1   force =     0.00039226   -0.00001796    0.00003014
     atom    6 type  2   force =     0.00126812   -0.00057875    0.00029259
     atom    7 type  3   force =    -0.00095127   -0.00015375   -0.00040572
     atom    8 type  2   force =    -0.00088808   -0.00041326    0.00050240
     atom    9 type  3   force =     0.00005237    0.00085444   -0.00048416
     atom   10 type  2   force =    -0.00053882    0.00052422   -0.00110802
     atom   11 type  1   force =     0.00046098    0.00084925    0.00059546
     atom   12 type  2   force =    -0.00011705    0.00037013   -0.00100246
     atom   13 type  3   force =     0.00058533   -0.00048076    0.00018294
     atom   14 type  2   force =     0.00014293    0.00015820    0.00059781
     atom   15 type  1   force =     0.00017167   -0.00038144   -0.00004425
     atom   16 type  2   force =     0.00084177    0.00091042   -0.00018289
     atom   17 type  1   force =    -0.00004106   -0.00006543   -0.00014655
     atom   18 type  2   force =    -0.00024134    0.00027771   -0.00051038
     atom   19 type  1   force =     0.00079570   -0.00041604    0.00008666
     atom   20 type  2   force =     0.00008295    0.00128765   -0.00085387
     atom   21 type  3   force =     0.00004454    0.00079038    0.00063775
     atom   22 type  2   force =    -0.00042037   -0.00018725    0.00039358
     atom   23 type  1   force =    -0.00076117    0.00005357   -0.00079529
     atom   24 type  2   force =     0.00057787    0.00020552    0.00034638
     atom   25 type  1   force =     0.00042293   -0.00043301   -0.00050668
     atom   26 type  2   force =     0.00002182   -0.00035561    0.00008268
     atom   27 type  1   force =     0.00020312    0.00045493    0.00040272
     atom   28 type  2   force =    -0.00005067   -0.00110633    0.00010105
     atom   29 type  1   force =    -0.00042764   -0.00001687   -0.00081696
     atom   30 type  2   force =    -0.00011022    0.00055426   -0.00051957
     atom   31 type  1   force =    -0.00002520    0.00034986   -0.00014605
     atom   32 type  2   force =     0.00106546   -0.00096143   -0.00036843
     atom   33 type  1   force =    -0.00081583    0.00046174    0.00096744
     atom   34 type  2   force =     0.00025463    0.00003467    0.00053984
     atom   35 type  1   force =    -0.00061321   -0.00098752   -0.00030109
     atom   36 type  2   force =     0.00045538   -0.00084836    0.00056421
     atom   37 type  1   force =    -0.00038550   -0.00097751    0.00060527
     atom   38 type  2   force =    -0.00072230   -0.00065149    0.00092128
     atom   39 type  1   force =     0.00002830   -0.00021597    0.00035289
     atom   40 type  2   force =     0.00034747   -0.00037693   -0.00004214
     atom   41 type  1   force =    -0.00005283    0.00033707    0.00015585
     atom   42 type  2   force =     0.00001651   -0.00029511    0.00119164
     atom   43 type  1   force =    -0.00123158    0.00063433   -0.00010614
     atom   44 type  2   force =    -0.00004667    0.00010329    0.00016595
     atom   45 type  1   force =     0.00001673    0.00040022    0.00113324
     atom   46 type  2   force =     0.00053520    0.00012283   -0.00041569
     atom   47 type  1   force =     0.00004965    0.00001278    0.00054800
     atom   48 type  2   force =    -0.00038742   -0.00049275   -0.00033497
     atom   49 type  1   force =    -0.00069305   -0.00034892   -0.00080872
     atom   50 type  2   force =    -0.00028293    0.00015168    0.00013826
     atom   51 type  1   force =     0.00002237   -0.00046633   -0.00043670
     atom   52 type  2   force =     0.00048707   -0.00009952    0.00069484
     atom   53 type  1   force =     0.00020668   -0.00050614   -0.00016652
     atom   54 type  2   force =     0.00085294   -0.00019838   -0.00038316
     atom   55 type  1   force =     0.00010443    0.00030291    0.00024874
     atom   56 type  2   force =    -0.00117840    0.00027555   -0.00015464
     atom   57 type  1   force =     0.00053440   -0.00052996   -0.00086928
     atom   58 type  2   force =     0.00038140    0.00018530   -0.00065805
     atom   59 type  1   force =    -0.00054477    0.00022898   -0.00030210
     atom   60 type  2   force =    -0.00010732    0.00114945   -0.00017339
     atom   61 type  1   force =    -0.00027603    0.00087271   -0.00072518
     atom   62 type  2   force =    -0.00068018    0.00060114   -0.00083053
     atom   63 type  1   force =     0.00054349   -0.00009235    0.00049457
     atom   64 type  2   force =    -0.00046878    0.00018161   -0.00048532

     Total force =     0.007632     Total SCF correction =     0.000422


     Computing stress (Cartesian axis) and pressure

          total   stress  (Ry/bohr**3)                   (kbar)     P=       28.71
   0.00019474  -0.00001254  -0.00005445           28.65       -1.84       -8.01
  -0.00001254   0.00018383  -0.00011298           -1.84       27.04      -16.62
  -0.00005445  -0.00011298   0.00020684           -8.01      -16.62       30.43

     Energy error            =      3.3E-04 Ry
     Gradient error          =      1.3E-03 Ry/Bohr

     number of scf cycles    =   8
     number of bfgs steps    =   7

     energy             old  =   -2749.5995495956 Ry
     energy             new  =   -2749.5998808629 Ry

     CASE: energy            _new < energy            _old

     new trust radius        =       0.0038300919 bohr

     The maximum number of steps has been reached.

     End of BFGS Geometry Optimization

ATOMIC_POSITIONS (angstrom)
Al           -0.0203905973       -0.0168463712        0.0212172762
N             2.0581562300       -0.0791944673        0.0766538958
Al           -0.0349617355        2.0183718940        2.0515319999
N             2.0448745923        1.9607447737        2.1284451332
Al            2.0558716110       -0.0207177026        2.0456487645
N            -0.0236266073       -0.0017430993        2.0043426076
Ti            2.0418676584        2.0447704166        0.0042548417
N            -0.0513481089        2.0621964720        0.0059035183
Ti            0.0857605388        0.0072248270        4.1743423002
N             2.1366929208       -0.0259032418        4.0250678502
Al           -0.0385512653        2.0874363945        6.1474144424
N             2.0380959767        2.1232231478        6.0453116320
Ti            1.9808515533        0.0839126543        6.1453525623
N            -0.0944973464        0.0117068705        6.2383343227
Al            2.0731043957        2.0731067048        4.0842933363
N            -0.0104963816        2.0857974434        4.0944766660
Al           -0.0374901275        4.1092883713       -0.0148634515
N             2.0439705686        4.1790261399       -0.0879125492
Al            0.0044200104        6.1467007827        2.0424212232
N             2.0451166232        6.1585903892        2.0596895076
Ti            2.0497550992        4.0017490807        1.9434725278
N            -0.0346727846        4.0809020377        2.0347089351
Al            2.0509008427        6.1483705788       -0.0065605000
N            -0.0139034028        6.1260031255        0.0017134166
Al            0.0010075165        4.0967597557        4.0930981057
N             2.0487524589        4.1046329732        4.1132028355
Al           -0.0058500216        6.1102857324        6.1555976656
N             2.0399050562        6.1108008855        6.1084889530
Al            2.0513236053        4.1087362504        6.1192762464
N            -0.0204132178        4.0938134243        6.1395173579
Al            2.0714573550        6.1112274920        4.0798719746
N            -0.0034864224        6.1027315599        4.0988187970
Al            4.1018095870       -0.0168510653        0.0042396905
N             6.1212914673       -0.0033788318        0.0195527264
Al            4.1259174170        2.0130059263        2.0561608602
N             6.1377177306        2.0480431388        2.0535455992
Al            6.1382279497       -0.0133648523        2.0575104586
N             4.1213104791       -0.0038270034        2.0349510122
Al            6.1304792843        2.0370912807        0.0031074299
N             4.1336580190        2.0551204119       -0.0001646331
Al            4.0982397997       -0.0071645998        4.0962955673
N             6.0871047698       -0.0000571650        4.0904813517
Al            4.1169163008        2.0492136982        6.1271962050
N             6.1352515501        2.0590741767        6.1328013981
Al            6.1203897309       -0.0041096957        6.1444164750
N             4.1427065350        0.0097734893        6.1588131696
Al            6.1254167783        2.0422713526        4.0916130635
N             4.1046352291        2.0588986429        4.0899525898
Al            4.1262764046        4.1075074512       -0.0261961470
N             6.1344400466        4.0963353964       -0.0037125807
Al            4.0900750751        6.1478569393        2.0454606834
N             6.1407716176        6.1263245111        2.0498075164
Al            6.1352570928        4.0954820377        2.0491438595
N             4.1257991773        4.0791160295        2.0324842616
Al            6.1308532066        6.1457929168        0.0027663369
N             4.1033450289        6.1262577512       -0.0012640311
Al            4.0965923399        4.0964418958        4.0964573849
N             6.1370867219        4.0921756376        4.0884727075
Al            4.0843967178        6.1489159647        6.1353336528
N             6.1365255265        6.1320166410        6.1362449568
Al            6.1261538042        4.1028832968        6.1259426314
N             4.1050384999        4.0923189692        6.1347319142
Al            6.1287725498        6.1419786606        4.0908466238
N             4.1053469689        6.1211517014        4.0898750717



     Writing config-only to output data dir ../output/relax_sqs_all_x/tmp_x0875/TiAlN_x0875_relax.save/
     NEW-OLD atomic charge density approx. for the potential

     Check: negative core charge=   -0.000009
 
     init_run     :      2.32s CPU      2.42s WALL (       1 calls)
     electrons    :    444.80s CPU    455.33s WALL (       8 calls)
     update_pot   :      2.09s CPU      2.11s WALL (       8 calls)
     forces       :     10.63s CPU     10.99s WALL (       8 calls)
     stress       :     92.66s CPU     93.75s WALL (       8 calls)

     Called by init_run:
     wfcinit      :      1.87s CPU      1.94s WALL (       1 calls)
     potinit      :      0.22s CPU      0.23s WALL (       1 calls)
     hinit0       :      0.12s CPU      0.12s WALL (       1 calls)

     Called by electrons:
     c_bands      :    367.65s CPU    374.27s WALL (      94 calls)
     sum_band     :     50.00s CPU     52.04s WALL (      94 calls)
     v_of_rho     :      3.53s CPU      3.59s WALL (     102 calls)
     newd         :      5.65s CPU      6.97s WALL (     102 calls)
     PAW_pot      :     17.34s CPU     17.51s WALL (     110 calls)
     mix_rho      :      3.87s CPU      4.15s WALL (      94 calls)

     Called by c_bands:
     init_us_2    :      7.83s CPU      7.91s WALL (     426 calls)
     init_us_2:cp :      7.83s CPU      7.91s WALL (     426 calls)
     cegterg      :    328.23s CPU    334.57s WALL (     188 calls)

     Called by *egterg:
     cdiaghg      :     20.78s CPU     20.99s WALL (     821 calls)
     h_psi        :    180.22s CPU    182.86s WALL (     839 calls)
     s_psi        :     45.82s CPU     46.15s WALL (     839 calls)
     g_psi        :      0.74s CPU      0.75s WALL (     649 calls)

     Called by h_psi:
     h_psi:calbec :     45.06s CPU     45.40s WALL (     839 calls)
     vloc_psi     :     87.64s CPU     88.99s WALL (     839 calls)
     add_vuspsi   :     46.11s CPU     46.49s WALL (     839 calls)

     General routines
     calbec       :     72.23s CPU     72.77s WALL (    1123 calls)
     fft          :      2.17s CPU      2.21s WALL (    1332 calls)
     ffts         :      2.04s CPU      2.06s WALL (    1877 calls)
     fftw         :     90.49s CPU     91.87s WALL (  193824 calls)
     davcio       :      0.00s CPU      0.05s WALL (       2 calls)
 
     Parallel routines
 
     PWSCF        :   9m17.08s CPU   9m30.11s WALL

 
   This run was terminated on:   3:36:51  11May2026            

=------------------------------------------------------------------------------=
   JOB DONE.
=------------------------------------------------------------------------------=
