
     Program PWSCF v.7.1 starts on 11May2026 at  3:27:21 

     This program is part of the open-source Quantum ESPRESSO suite
     for quantum simulation of materials; please cite
         "P. Giannozzi et al., J. Phys.:Condens. Matter 21 395502 (2009);
         "P. Giannozzi et al., J. Phys.:Condens. Matter 29 465901 (2017);
         "P. Giannozzi et al., J. Chem. Phys. 152 154105 (2020);
          URL http://www.quantum-espresso.org", 
     in publications or presentations arising from this work. More details at
     http://www.quantum-espresso.org/quote

     Parallel version (MPI & OpenMP), running on      32 processor cores
     Number of MPI processes:                32
     Threads/MPI process:                     1

     MPI processes distributed on     1 nodes
     91196 MiB available memory on the printing compute node when the environment starts
 
     Reading input from relax_sqs_x0375.in

     Current dimensions of program PWSCF are:
     Max number of different atomic species (ntypx) = 10
     Max number of k-points (npk) = 150000
     Max angular momentum in pseudopotentials (lmaxx) =  4
     file Al.pbe-n-kjpaw_psl.1.0.0.UPF: wavefunction(s)  3S 3P renormalized
     file N.pbe-n-kjpaw_psl.1.0.0.UPF: wavefunction(s)  2S renormalized
     file Ti.pbe-spn-kjpaw_psl.1.0.0.UPF: wavefunction(s)  3S 3P 3D renormalized
 
     K-points division:     npool     =       4
     R & G space division:  proc/nbgrp/npool/nimage =       8
     Subspace diagonalization in iterative solution of the eigenvalue problem:
     one sub-group per band group will be used
     scalapack distributed-memory algorithm (size of sub-group:  2*  2 procs)

 
     Parallelization info
     --------------------
     sticks:   dense  smooth     PW     G-vecs:    dense   smooth      PW
     Min         593     593    163                30853    30853    4409
     Max         595     595    164                30854    30854    4410
     Sum        4749    4749   1305               246825   246825   35273
 
     Using Slab Decomposition
 


     bravais-lattice index     =            0
     lattice parameter (alat)  =      15.7839  a.u.
     unit-cell volume          =    3932.2947 (a.u.)^3
     number of atoms/cell      =           64
     number of atomic types    =            3
     number of electrons       =       436.00
     number of Kohn-Sham states=          262
     kinetic-energy cutoff     =      60.0000  Ry
     charge density cutoff     =     240.0000  Ry
     scf convergence threshold =      1.0E-06
     mixing beta               =       0.2000
     number of iterations used =            8  local-TF  mixing
     energy convergence thresh.=      1.0E-04
     force convergence thresh. =      1.0E-03
     Exchange-correlation= SLA  PW   PBX  PBC
                           (   1   4   3   4   0   0   0)
     nstep                     =            8


     celldm(1)=  15.783937  celldm(2)=   0.000000  celldm(3)=   0.000000
     celldm(4)=   0.000000  celldm(5)=   0.000000  celldm(6)=   0.000000

     crystal axes: (cart. coord. in units of alat)
               a(1) = (   1.000000   0.000000   0.000000 )  
               a(2) = (   0.000000   1.000000   0.000000 )  
               a(3) = (   0.000000   0.000000   1.000000 )  

     reciprocal axes: (cart. coord. in units 2 pi/alat)
               b(1) = (  1.000000  0.000000  0.000000 )  
               b(2) = (  0.000000  1.000000  0.000000 )  
               b(3) = (  0.000000  0.000000  1.000000 )  


     PseudoPot. # 1 for Al read from file:
     ../../pseudo/Al.pbe-n-kjpaw_psl.1.0.0.UPF
     MD5 check sum: 502b6b27b9c6270cab5dd1084b96fa6d
     Pseudo is Projector augmented-wave + core cor, Zval =  3.0
     Generated using &quot;atomic&quot; code by A. Dal Corso  v.6.3
     Shape of augmentation charge: PSQ
     Using radial grid of 1135 points,  6 beta functions with: 
                l(1) =   0
                l(2) =   0
                l(3) =   1
                l(4) =   1
                l(5) =   2
                l(6) =   2
     Q(r) pseudized with 0 coefficients 


     PseudoPot. # 2 for N  read from file:
     ../../pseudo/N.pbe-n-kjpaw_psl.1.0.0.UPF
     MD5 check sum: 14c48229446f9f2d411169a3abcbc3fa
     Pseudo is Projector augmented-wave + core cor, Zval =  5.0
     Generated using &quot;atomic&quot; code by A. Dal Corso  v.6.3
     Shape of augmentation charge: PSQ
     Using radial grid of 1085 points,  4 beta functions with: 
                l(1) =   0
                l(2) =   0
                l(3) =   1
                l(4) =   1
     Q(r) pseudized with 0 coefficients 


     PseudoPot. # 3 for Ti read from file:
     ../../pseudo/Ti.pbe-spn-kjpaw_psl.1.0.0.UPF
     MD5 check sum: 01f69b0d8ba4438b2e03ac6ea4af1c0b
     Pseudo is Projector augmented-wave + core cor, Zval = 12.0
     Generated using &quot;atomic&quot; code by A. Dal Corso  v.6.2.2
     Shape of augmentation charge: PSQ
     Using radial grid of 1177 points,  6 beta functions with: 
                l(1) =   0
                l(2) =   0
                l(3) =   1
                l(4) =   1
                l(5) =   2
                l(6) =   2
     Q(r) pseudized with 0 coefficients 


     atomic species   valence    mass     pseudopotential
        Al             3.00    26.98200     Al( 1.00)
        N              5.00    14.00700     N ( 1.00)
        Ti            12.00    47.86700     Ti( 1.00)

     No symmetry found



   Cartesian axes

     site n.     atom                  positions (alat units)
         1           Al  tau(   1) = (   0.0000000   0.0000000   0.0000000  )
         2           N   tau(   2) = (   0.2500000   0.0000000   0.0000000  )
         3           Ti  tau(   3) = (   0.0000000   0.2500000   0.2500000  )
         4           N   tau(   4) = (   0.2500000   0.2500000   0.2500000  )
         5           Ti  tau(   5) = (   0.2500000   0.0000000   0.2500000  )
         6           N   tau(   6) = (   0.0000000   0.0000000   0.2500000  )
         7           Ti  tau(   7) = (   0.2500000   0.2500000   0.0000000  )
         8           N   tau(   8) = (   0.0000000   0.2500000   0.0000000  )
         9           Ti  tau(   9) = (   0.0000000   0.0000000   0.5000000  )
        10           N   tau(  10) = (   0.2500000   0.0000000   0.5000000  )
        11           Ti  tau(  11) = (   0.0000000   0.2500000   0.7500000  )
        12           N   tau(  12) = (   0.2500000   0.2500000   0.7500000  )
        13           Al  tau(  13) = (   0.2500000   0.0000000   0.7500000  )
        14           N   tau(  14) = (   0.0000000   0.0000000   0.7500000  )
        15           Ti  tau(  15) = (   0.2500000   0.2500000   0.5000000  )
        16           N   tau(  16) = (   0.0000000   0.2500000   0.5000000  )
        17           Al  tau(  17) = (   0.0000000   0.5000000   0.0000000  )
        18           N   tau(  18) = (   0.2500000   0.5000000   0.0000000  )
        19           Ti  tau(  19) = (   0.0000000   0.7500000   0.2500000  )
        20           N   tau(  20) = (   0.2500000   0.7500000   0.2500000  )
        21           Ti  tau(  21) = (   0.2500000   0.5000000   0.2500000  )
        22           N   tau(  22) = (   0.0000000   0.5000000   0.2500000  )
        23           Ti  tau(  23) = (   0.2500000   0.7500000   0.0000000  )
        24           N   tau(  24) = (   0.0000000   0.7500000   0.0000000  )
        25           Al  tau(  25) = (   0.0000000   0.5000000   0.5000000  )
        26           N   tau(  26) = (   0.2500000   0.5000000   0.5000000  )
        27           Al  tau(  27) = (   0.0000000   0.7500000   0.7500000  )
        28           N   tau(  28) = (   0.2500000   0.7500000   0.7500000  )
        29           Ti  tau(  29) = (   0.2500000   0.5000000   0.7500000  )
        30           N   tau(  30) = (   0.0000000   0.5000000   0.7500000  )
        31           Al  tau(  31) = (   0.2500000   0.7500000   0.5000000  )
        32           N   tau(  32) = (   0.0000000   0.7500000   0.5000000  )
        33           Ti  tau(  33) = (   0.5000000   0.0000000   0.0000000  )
        34           N   tau(  34) = (   0.7500000   0.0000000   0.0000000  )
        35           Ti  tau(  35) = (   0.5000000   0.2500000   0.2500000  )
        36           N   tau(  36) = (   0.7500000   0.2500000   0.2500000  )
        37           Al  tau(  37) = (   0.7500000   0.0000000   0.2500000  )
        38           N   tau(  38) = (   0.5000000   0.0000000   0.2500000  )
        39           Ti  tau(  39) = (   0.7500000   0.2500000   0.0000000  )
        40           N   tau(  40) = (   0.5000000   0.2500000   0.0000000  )
        41           Ti  tau(  41) = (   0.5000000   0.0000000   0.5000000  )
        42           N   tau(  42) = (   0.7500000   0.0000000   0.5000000  )
        43           Ti  tau(  43) = (   0.5000000   0.2500000   0.7500000  )
        44           N   tau(  44) = (   0.7500000   0.2500000   0.7500000  )
        45           Al  tau(  45) = (   0.7500000   0.0000000   0.7500000  )
        46           N   tau(  46) = (   0.5000000   0.0000000   0.7500000  )
        47           Ti  tau(  47) = (   0.7500000   0.2500000   0.5000000  )
        48           N   tau(  48) = (   0.5000000   0.2500000   0.5000000  )
        49           Ti  tau(  49) = (   0.5000000   0.5000000   0.0000000  )
        50           N   tau(  50) = (   0.7500000   0.5000000   0.0000000  )
        51           Al  tau(  51) = (   0.5000000   0.7500000   0.2500000  )
        52           N   tau(  52) = (   0.7500000   0.7500000   0.2500000  )
        53           Al  tau(  53) = (   0.7500000   0.5000000   0.2500000  )
        54           N   tau(  54) = (   0.5000000   0.5000000   0.2500000  )
        55           Al  tau(  55) = (   0.7500000   0.7500000   0.0000000  )
        56           N   tau(  56) = (   0.5000000   0.7500000   0.0000000  )
        57           Ti  tau(  57) = (   0.5000000   0.5000000   0.5000000  )
        58           N   tau(  58) = (   0.7500000   0.5000000   0.5000000  )
        59           Ti  tau(  59) = (   0.5000000   0.7500000   0.7500000  )
        60           N   tau(  60) = (   0.7500000   0.7500000   0.7500000  )
        61           Al  tau(  61) = (   0.7500000   0.5000000   0.7500000  )
        62           N   tau(  62) = (   0.5000000   0.5000000   0.7500000  )
        63           Ti  tau(  63) = (   0.7500000   0.7500000   0.5000000  )
        64           N   tau(  64) = (   0.5000000   0.7500000   0.5000000  )

     number of k points=     8  Gaussian smearing, width (Ry)=  0.0050
                       cart. coord. in units 2pi/alat
        k(    1) = (   0.0000000   0.0000000   0.0000000), wk =   0.2500000
        k(    2) = (   0.0000000   0.0000000  -0.5000000), wk =   0.2500000
        k(    3) = (   0.0000000  -0.5000000  -0.5000000), wk =   0.2500000
        k(    4) = (  -0.5000000  -0.5000000  -0.5000000), wk =   0.2500000
        k(    5) = (  -0.5000000   0.0000000   0.0000000), wk =   0.2500000
        k(    6) = (   0.0000000  -0.5000000   0.0000000), wk =   0.2500000
        k(    7) = (  -0.5000000   0.0000000   0.5000000), wk =   0.2500000
        k(    8) = (  -0.5000000   0.5000000   0.0000000), wk =   0.2500000

     Dense  grid:   246825 G-vectors     FFT dimensions: (  80,  80,  80)

     Estimated max dynamical RAM per process >     217.05 MB

     Estimated total dynamical RAM >       6.61 GB

     Check: negative core charge=   -0.000024

     Initial potential from superposition of free atoms

     starting charge     435.9427, renormalised to     436.0000
     Starting wfcs are  376 randomized atomic wfcs
     Checking if some PAW data can be deallocated... 

     total cpu time spent up to now is        3.8 secs

     Self-consistent Calculation

     iteration #  1     ecut=    60.00 Ry     beta= 0.20
     Davidson diagonalization with overlap
     ethr =  1.00E-02,  avg # of iterations =  2.0

     total cpu time spent up to now is       11.1 secs

     total energy              =   -5059.63254787 Ry
     estimated scf accuracy    <      19.25687914 Ry

     iteration #  2     ecut=    60.00 Ry     beta= 0.20
     Davidson diagonalization with overlap
     ethr =  4.42E-03,  avg # of iterations =  1.0

     total cpu time spent up to now is       17.0 secs

     total energy              =   -5054.91255077 Ry
     estimated scf accuracy    <      10.92546391 Ry

     iteration #  3     ecut=    60.00 Ry     beta= 0.20
     Davidson diagonalization with overlap
     ethr =  2.51E-03,  avg # of iterations =  3.4

     total cpu time spent up to now is       25.4 secs

     total energy              =   -5057.55605907 Ry
     estimated scf accuracy    <       0.80083094 Ry

     iteration #  4     ecut=    60.00 Ry     beta= 0.20
     Davidson diagonalization with overlap
     ethr =  1.84E-04,  avg # of iterations =  4.9

     total cpu time spent up to now is       33.5 secs

     total energy              =   -5057.61105460 Ry
     estimated scf accuracy    <       0.44546275 Ry

     iteration #  5     ecut=    60.00 Ry     beta= 0.20
     Davidson diagonalization with overlap
     ethr =  1.02E-04,  avg # of iterations =  1.6

     total cpu time spent up to now is       40.0 secs

     total energy              =   -5057.53951708 Ry
     estimated scf accuracy    <       0.28640253 Ry

     iteration #  6     ecut=    60.00 Ry     beta= 0.20
     Davidson diagonalization with overlap
     ethr =  6.57E-05,  avg # of iterations =  2.0

     total cpu time spent up to now is       46.9 secs

     total energy              =   -5057.55546296 Ry
     estimated scf accuracy    <       0.03185169 Ry

     iteration #  7     ecut=    60.00 Ry     beta= 0.20
     Davidson diagonalization with overlap
     c_bands:  4 eigenvalues not converged
     c_bands:  2 eigenvalues not converged
     ethr =  7.31E-06,  avg # of iterations = 16.2

     total cpu time spent up to now is       63.7 secs

     total energy              =   -5057.56093428 Ry
     estimated scf accuracy    <       0.00928954 Ry

     iteration #  8     ecut=    60.00 Ry     beta= 0.20
     Davidson diagonalization with overlap
     c_bands:  3 eigenvalues not converged
     ethr =  2.13E-06,  avg # of iterations = 11.1

     total cpu time spent up to now is       74.5 secs

     total energy              =   -5057.56031228 Ry
     estimated scf accuracy    <       0.00551319 Ry

     iteration #  9     ecut=    60.00 Ry     beta= 0.20
     Davidson diagonalization with overlap
     ethr =  1.26E-06,  avg # of iterations =  4.0

     total cpu time spent up to now is       82.1 secs

     total energy              =   -5057.56042182 Ry
     estimated scf accuracy    <       0.00156196 Ry

     iteration # 10     ecut=    60.00 Ry     beta= 0.20
     Davidson diagonalization with overlap
     ethr =  3.58E-07,  avg # of iterations =  6.4

     total cpu time spent up to now is       91.0 secs

     total energy              =   -5057.56038844 Ry
     estimated scf accuracy    <       0.00054919 Ry

     iteration # 11     ecut=    60.00 Ry     beta= 0.20
     Davidson diagonalization with overlap
     ethr =  1.26E-07,  avg # of iterations =  4.2

     total cpu time spent up to now is       99.0 secs

     total energy              =   -5057.56042786 Ry
     estimated scf accuracy    <       0.00013036 Ry

     iteration # 12     ecut=    60.00 Ry     beta= 0.20
     Davidson diagonalization with overlap
     ethr =  2.99E-08,  avg # of iterations =  4.4

     total cpu time spent up to now is      107.2 secs

     total energy              =   -5057.56044183 Ry
     estimated scf accuracy    <       0.00001875 Ry

     iteration # 13     ecut=    60.00 Ry     beta= 0.20
     Davidson diagonalization with overlap
     c_bands:  1 eigenvalues not converged
     ethr =  4.30E-09,  avg # of iterations =  9.2

     total cpu time spent up to now is      119.3 secs

     total energy              =   -5057.56044402 Ry
     estimated scf accuracy    <       0.00001102 Ry

     iteration # 14     ecut=    60.00 Ry     beta= 0.20
     Davidson diagonalization with overlap
     ethr =  2.53E-09,  avg # of iterations =  2.0

     total cpu time spent up to now is      125.9 secs

     total energy              =   -5057.56044299 Ry
     estimated scf accuracy    <       0.00000378 Ry

     iteration # 15     ecut=    60.00 Ry     beta= 0.20
     Davidson diagonalization with overlap
     ethr =  8.67E-10,  avg # of iterations =  2.4

     total cpu time spent up to now is      133.3 secs

     total energy              =   -5057.56044290 Ry
     estimated scf accuracy    <       0.00000136 Ry

     iteration # 16     ecut=    60.00 Ry     beta= 0.20
     Davidson diagonalization with overlap
     ethr =  3.11E-10,  avg # of iterations =  3.1

     total cpu time spent up to now is      141.5 secs

     End of self-consistent calculation

          k = 0.0000 0.0000 0.0000 ( 31031 PWs)   bands (ev):

   -42.0605 -42.0106 -41.9941 -41.9532 -41.8791 -41.8491 -41.8312 -41.8121
   -41.8005 -41.7948 -41.7790 -41.7741 -41.7649 -41.7634 -41.7476 -41.7435
   -41.7320 -41.7294 -41.7260 -41.6975 -18.6051 -18.5289 -18.5070 -18.4988
   -18.4781 -18.4765 -18.4334 -18.4201 -18.4067 -18.4025 -18.3963 -18.3722
   -18.3657 -18.3606 -18.3545 -18.3325 -18.3160 -18.3050 -18.2958 -18.2789
   -18.2660 -18.2621 -18.2584 -18.2394 -18.2326 -18.2239 -18.2189 -18.2122
   -18.1907 -18.1835 -18.1755 -18.1677 -18.1475 -18.1367 -18.1274 -18.1171
   -18.1124 -18.0854 -18.0771 -18.0678 -18.0544 -18.0495 -18.0405 -18.0371
   -18.0259 -18.0172 -18.0109 -18.0028 -17.9943 -17.9830 -17.9625 -17.9581
   -17.9501 -17.9392 -17.9302 -17.9247 -17.9198 -17.9136 -17.9001 -17.8719
    -2.3246  -1.1339  -1.0805  -1.0374  -0.8637  -0.8043  -0.6909  -0.1386
    -0.0648  -0.0576  -0.0326   0.0073   0.0271   0.1150   0.1430   0.1590
     0.1855   0.2160   0.2650   0.2753   0.3326   0.3631   0.4567   0.4938
     0.5667   0.6177   0.6469   0.6618   0.6783   0.7743   0.8349   0.9589
     5.8803   6.4145   6.9290   7.0203   7.4850   7.7987   7.8117   7.9069
     8.0228   8.1073   8.1471   8.3408   8.4189   8.5260   8.5454   8.5581
     8.6082   8.7771   8.7844   8.9040   9.0009   9.0653   9.1557   9.1919
     9.2463   9.2719   9.4319   9.4512   9.4970   9.5695   9.6187   9.6321
     9.7482   9.7825   9.8814   9.9426   9.9684  10.0168  10.0698  10.1786
    10.2005  10.2048  10.2259  10.3073  10.3541  10.3754  10.3775  10.3869
    10.3937  10.4437  10.5100  10.6015  10.6228  10.6401  10.7164  10.7238
    10.7705  10.8449  10.8909  10.8954  10.9807  11.0395  11.0593  11.0708
    11.1964  11.2246  11.2583  11.2776  11.3220  11.3338  11.4892  11.6411
    11.8315  11.8558  11.8779  11.9442  12.0421  12.0828  12.1376  12.2290
    12.2594  12.2895  12.3015  12.3455  12.3577  12.3788  12.5012  12.5642
    12.5884  12.6634  12.6885  12.7577  12.7926  13.4375  13.5619  13.7458
    13.7646  13.7703  13.7891  14.5990  14.6623  14.7307  14.9551  15.0536
    15.1839  16.0216  16.1245  16.2299  16.7647  16.8569  16.9347  16.9588
    16.9835  17.0094  17.0277  17.0365  17.0952  17.1196  17.1447  17.1541
    17.1828  17.2367  17.2774  17.3022  17.3705  17.4018  17.4123  17.4564
    17.4800  17.5049  17.5131  17.5841  17.6112  17.6395  17.6468  17.6623
    17.6816  17.6965  17.7069  17.7262  17.7445  17.7560  17.7610  17.7747
    17.8042  17.8198  17.8279  17.8379  17.8798  17.8825

          k = 0.0000 0.0000-0.5000 ( 30814 PWs)   bands (ev):

   -42.0605 -42.0104 -41.9942 -41.9533 -41.8780 -41.8504 -41.8304 -41.8129
   -41.7979 -41.7954 -41.7870 -41.7735 -41.7662 -41.7563 -41.7476 -41.7418
   -41.7334 -41.7287 -41.7248 -41.6997 -18.5795 -18.5087 -18.4999 -18.4850
   -18.4674 -18.4645 -18.4445 -18.4393 -18.4333 -18.4028 -18.3826 -18.3810
   -18.3762 -18.3648 -18.3555 -18.3417 -18.3327 -18.3207 -18.3087 -18.2985
   -18.2976 -18.2894 -18.2727 -18.2563 -18.2493 -18.2222 -18.2142 -18.1968
   -18.1872 -18.1792 -18.1636 -18.1525 -18.1383 -18.1243 -18.1174 -18.0916
   -18.0817 -18.0692 -18.0593 -18.0571 -18.0471 -18.0413 -18.0326 -18.0258
   -18.0219 -18.0074 -18.0018 -17.9866 -17.9848 -17.9759 -17.9687 -17.9676
   -17.9623 -17.9440 -17.9413 -17.9371 -17.9301 -17.9265 -17.9200 -17.8921
    -2.0176  -1.8346  -0.8249  -0.6953  -0.6770  -0.6255  -0.6051  -0.5581
    -0.4023  -0.3826  -0.1009  -0.0831   0.1690   0.2004   0.2153   0.2418
     0.2862   0.3230   0.3579   0.3713   0.3823   0.4046   0.4186   0.4851
     0.5552   0.5735   0.6127   0.6536   0.6698   0.7198   0.7530   0.8152
     6.4125   6.6416   6.8964   7.2216   7.4108   7.4928   7.5451   7.6422
     7.9410   8.0412   8.1665   8.2903   8.3759   8.4042   8.6166   8.6418
     8.7302   8.7893   8.8161   8.9430   9.0054   9.0324   9.0594   9.1309
     9.1485   9.2796   9.3002   9.3679   9.3865   9.4549   9.4915   9.5134
     9.5608   9.6222   9.9423  10.0966  10.1249  10.1370  10.2652  10.2846
    10.3662  10.3683  10.4030  10.4311  10.5877  10.5965  10.6294  10.6510
    10.6813  10.6866  10.7095  10.7670  10.7843  10.8427  10.9029  10.9373
    11.0079  11.0403  11.0649  11.0885  11.1412  11.1898  11.2181  11.2278
    11.2634  11.2824  11.3420  11.3594  11.3751  11.4297  11.4511  11.5121
    11.5350  11.5666  11.6121  11.6140  11.6342  11.7056  11.7823  11.8043
    11.8410  11.9200  11.9379  11.9701  12.1313  12.1796  12.2099  12.2822
    12.2843  12.3479  12.3881  12.4490  13.0547  13.1334  13.1553  13.2204
    13.9165  14.1433  15.0806  15.1064  15.1499  15.1964  15.4974  15.6866
    15.8034  15.8646  15.8761  15.9515  16.0436  16.1052  16.3549  16.3625
    16.6829  16.8039  16.9017  16.9376  16.9907  17.0367  17.1046  17.1459
    17.1978  17.2388  17.2526  17.2755  17.2996  17.3479  17.3700  17.3969
    17.4137  17.4250  17.4556  17.4828  17.4863  17.5115  17.5339  17.5642
    17.5810  17.6058  17.6871  17.7048  17.7404  17.7951  17.7959  17.8158
    17.8308  17.8625  17.8793  17.9198  17.9305  17.9526

          k = 0.0000-0.5000-0.5000 ( 30888 PWs)   bands (ev):

   -42.0605 -42.0104 -41.9942 -41.9533 -41.8775 -41.8495 -41.8319 -41.8164
   -41.7984 -41.7945 -41.7843 -41.7733 -41.7652 -41.7564 -41.7470 -41.7416
   -41.7334 -41.7294 -41.7256 -41.6998 -18.5768 -18.5063 -18.4851 -18.4783
   -18.4753 -18.4581 -18.4539 -18.4330 -18.4164 -18.4151 -18.4080 -18.3905
   -18.3785 -18.3633 -18.3559 -18.3369 -18.3323 -18.3301 -18.3117 -18.2999
   -18.2959 -18.2825 -18.2697 -18.2600 -18.2541 -18.2329 -18.2012 -18.1992
   -18.1877 -18.1751 -18.1539 -18.1366 -18.1305 -18.1200 -18.0991 -18.0889
   -18.0789 -18.0764 -18.0755 -18.0585 -18.0488 -18.0456 -18.0421 -18.0324
   -18.0270 -18.0068 -18.0008 -17.9995 -17.9878 -17.9856 -17.9741 -17.9699
   -17.9648 -17.9527 -17.9398 -17.9301 -17.9248 -17.9193 -17.9009 -17.8880
    -1.7792  -1.5872  -1.4391  -1.2625  -0.5377  -0.4378  -0.3865  -0.2782
    -0.2335  -0.1644  -0.1375  -0.0559   0.0326   0.0906   0.1339   0.1534
     0.1757   0.2237   0.2563   0.2968   0.3820   0.4241   0.5047   0.5356
     0.5559   0.5831   0.6218   0.6515   0.6735   0.6935   0.7577   0.8322
     6.7572   6.9718   7.0379   7.1540   7.2181   7.4303   7.4725   7.7829
     7.8184   7.9897   8.1123   8.2965   8.3150   8.4085   8.4199   8.5561
     8.6926   8.7580   8.7836   8.8360   8.8565   8.9154   9.0523   9.0728
     9.1274   9.2352   9.3438   9.3936   9.4778   9.5331   9.7246   9.7340
     9.8861   9.9514   9.9911  10.0616  10.1257  10.1628  10.3027  10.3636
    10.3950  10.4983  10.5595  10.5960  10.6008  10.6135  10.6460  10.6788
    10.6948  10.7590  10.8311  10.8553  10.9090  10.9357  10.9670  10.9820
    11.0215  11.0701  11.1201  11.1606  11.1947  11.2030  11.2306  11.2439
    11.2642  11.2816  11.2933  11.3142  11.3362  11.3477  11.3511  11.3944
    11.4244  11.4471  11.4754  11.5018  11.5137  11.5476  11.5981  11.6102
    11.6640  11.7325  11.8150  11.9185  11.9522  12.0689  12.2516  12.2870
    12.3001  12.3556  12.3702  12.4797  12.5159  12.5856  12.7557  12.9250
    15.0676  15.1616  15.1982  15.2726  15.4840  15.5626  15.5976  15.6414
    15.7373  15.7489  15.8234  15.8384  16.0602  16.2096  16.2491  16.2879
    16.3233  16.4226  16.4418  16.4862  16.5519  16.6264  16.6388  16.7139
    16.8720  16.9173  16.9482  17.0687  17.1041  17.1994  17.2374  17.3258
    17.3429  17.3767  17.3983  17.4257  17.4443  17.5042  17.5385  17.5684
    17.6358  17.6945  17.7524  17.7748  17.8144  17.8476  17.8971  17.9100
    17.9478  17.9673  17.9807  17.9895  18.0412  18.0676

          k =-0.5000-0.5000-0.5000 ( 30688 PWs)   bands (ev):

   -42.0605 -42.0103 -41.9941 -41.9533 -41.8776 -41.8493 -41.8267 -41.8205
   -41.8091 -41.7867 -41.7826 -41.7730 -41.7637 -41.7557 -41.7474 -41.7416
   -41.7344 -41.7299 -41.7256 -41.6999 -18.5955 -18.5069 -18.4813 -18.4789
   -18.4619 -18.4478 -18.4457 -18.4349 -18.4316 -18.4181 -18.4023 -18.3875
   -18.3708 -18.3625 -18.3485 -18.3338 -18.3275 -18.3156 -18.3083 -18.3045
   -18.2918 -18.2873 -18.2601 -18.2551 -18.2491 -18.2436 -18.2193 -18.2093
   -18.2005 -18.1772 -18.1684 -18.1484 -18.1242 -18.1134 -18.0960 -18.0837
   -18.0777 -18.0732 -18.0673 -18.0616 -18.0557 -18.0487 -18.0434 -18.0377
   -18.0265 -18.0180 -18.0137 -18.0000 -17.9964 -17.9854 -17.9829 -17.9651
   -17.9602 -17.9497 -17.9338 -17.9260 -17.9228 -17.9145 -17.8943 -17.8754
    -1.6084  -1.3546  -1.2566  -1.1013  -1.0681  -0.9651  -0.7545  -0.6646
    -0.1073   0.0417   0.0970   0.1324   0.1727   0.2100   0.2641   0.2747
     0.2806   0.2936   0.3315   0.3727   0.3771   0.4150   0.4330   0.4660
     0.4912   0.5289   0.5425   0.5489   0.6127   0.6538   0.7478   0.7849
     6.9629   7.1025   7.1474   7.3282   7.3594   7.5063   7.6439   7.6932
     7.8622   7.9295   8.0053   8.0671   8.2965   8.3261   8.4073   8.5170
     8.6288   8.7052   8.7228   8.9245   9.0131   9.0782   9.1460   9.2065
     9.2931   9.3706   9.4361   9.5623   9.6372   9.7356   9.8225   9.8340
     9.9014   9.9357  10.0048  10.0300  10.0527  10.0592  10.1587  10.1750
    10.2182  10.2436  10.2624  10.3162  10.3231  10.3804  10.3896  10.4242
    10.5146  10.5632  10.5726  10.6402  10.6642  10.7092  10.7792  10.8507
    10.8852  10.9820  11.0108  11.0515  11.0912  11.1028  11.1396  11.1897
    11.2034  11.2419  11.2765  11.3147  11.3528  11.3703  11.3816  11.3927
    11.4556  11.5189  11.5344  11.6415  11.7065  11.7676  11.8386  11.8924
    11.9509  11.9636  12.0200  12.0718  12.1238  12.1982  12.3204  12.3766
    12.4717  12.4938  12.5085  12.5164  12.5776  12.6154  12.8476  12.8646
    15.4710  15.5206  15.5399  15.5824  15.6027  15.6409  15.7203  15.7415
    15.7729  15.8327  15.8654  15.8936  15.9210  15.9583  16.0007  16.0399
    16.1244  16.1788  16.1909  16.2599  16.2949  16.5353  16.5569  16.5935
    16.6442  16.7063  16.7323  16.7978  16.8595  16.9022  16.9750  17.0179
    17.0256  17.0859  17.0977  17.1303  17.1643  17.4128  17.4803  17.5987
    17.7071  17.7308  17.7463  17.8802  17.9120  17.9350  18.0099  18.0533
    18.1174  18.1288  18.1630  18.1808  18.1958  18.2442

          k =-0.5000 0.0000 0.0000 ( 30814 PWs)   bands (ev):

   -42.0605 -42.0104 -41.9942 -41.9533 -41.8789 -41.8492 -41.8263 -41.8178
   -41.8084 -41.7857 -41.7803 -41.7734 -41.7640 -41.7616 -41.7479 -41.7437
   -41.7328 -41.7301 -41.7260 -41.6976 -18.5755 -18.5176 -18.4924 -18.4857
   -18.4786 -18.4696 -18.4533 -18.4382 -18.4219 -18.4190 -18.4040 -18.3877
   -18.3691 -18.3592 -18.3497 -18.3336 -18.3292 -18.3135 -18.2992 -18.2976
   -18.2905 -18.2734 -18.2621 -18.2541 -18.2379 -18.2250 -18.2061 -18.2034
   -18.1852 -18.1645 -18.1614 -18.1577 -18.1467 -18.1244 -18.1115 -18.0990
   -18.0907 -18.0766 -18.0681 -18.0637 -18.0550 -18.0467 -18.0360 -18.0324
   -18.0210 -18.0179 -18.0126 -17.9981 -17.9927 -17.9756 -17.9685 -17.9610
   -17.9511 -17.9500 -17.9400 -17.9350 -17.9239 -17.9194 -17.9039 -17.8845
    -2.0896  -1.6887  -0.8829  -0.8004  -0.7214  -0.6501  -0.5773  -0.4578
    -0.4034  -0.2783  -0.1279  -0.1058   0.0696   0.1347   0.1599   0.2080
     0.2308   0.2854   0.3063   0.3508   0.3926   0.4352   0.4784   0.5196
     0.5282   0.5940   0.6334   0.7243   0.7578   0.7730   0.8062   0.8299
     6.2491   6.6977   7.1477   7.3760   7.4904   7.5629   7.6758   7.9168
     8.0965   8.1259   8.1272   8.2115   8.2219   8.3021   8.4017   8.5668
     8.6262   8.7131   8.7676   8.8795   8.9365   8.9858   9.0304   9.0728
     9.1091   9.1372   9.1932   9.2708   9.3695   9.4471   9.4637   9.5167
     9.6227   9.7706   9.9895  10.0186  10.0654  10.0746  10.1689  10.2821
    10.2891  10.3398  10.3506  10.3713  10.3908  10.4157  10.4632  10.5378
    10.5722  10.5964  10.6486  10.6656  10.7898  10.8690  10.9251  10.9329
    10.9702  10.9977  11.0275  11.1290  11.1335  11.1556  11.1790  11.2179
    11.2374  11.2486  11.3034  11.3913  11.4069  11.4644  11.5247  11.5524
    11.6280  11.6484  11.7044  11.7349  11.7929  11.8090  11.8304  11.9083
    11.9537  12.0598  12.1318  12.1879  12.2139  12.2889  12.2906  12.3371
    12.4005  12.4251  12.4635  12.6106  13.0032  13.0706  13.2893  13.3170
    13.6181  14.3228  14.9817  14.9923  15.2755  15.3086  15.4338  15.6033
    15.6821  15.8351  15.8759  15.9095  16.1143  16.2797  16.4600  16.6687
    16.7864  16.8076  16.8662  17.0402  17.0776  17.0988  17.1283  17.1380
    17.1664  17.1769  17.2176  17.2321  17.2852  17.3071  17.3318  17.3613
    17.3849  17.4186  17.4362  17.4609  17.5005  17.5126  17.5206  17.5341
    17.5672  17.6307  17.6614  17.6746  17.6982  17.7153  17.7705  17.7869
    17.8191  17.8370  17.8883  17.9020  17.9362  17.9592

          k = 0.0000-0.5000 0.0000 ( 30814 PWs)   bands (ev):

   -42.0605 -42.0105 -41.9941 -41.9532 -41.8779 -41.8489 -41.8344 -41.8142
   -41.7982 -41.7939 -41.7786 -41.7737 -41.7644 -41.7627 -41.7468 -41.7439
   -41.7320 -41.7294 -41.7272 -41.6976 -18.5979 -18.5129 -18.5042 -18.4831
   -18.4806 -18.4630 -18.4387 -18.4260 -18.4048 -18.4031 -18.3848 -18.3749
   -18.3737 -18.3601 -18.3582 -18.3481 -18.3387 -18.3166 -18.3079 -18.2973
   -18.2832 -18.2797 -18.2620 -18.2611 -18.2471 -18.2265 -18.2166 -18.2106
   -18.1811 -18.1724 -18.1639 -18.1540 -18.1434 -18.1208 -18.1090 -18.0982
   -18.0936 -18.0801 -18.0749 -18.0704 -18.0492 -18.0430 -18.0320 -18.0303
   -18.0217 -18.0152 -18.0010 -17.9947 -17.9887 -17.9808 -17.9687 -17.9639
   -17.9553 -17.9492 -17.9441 -17.9326 -17.9307 -17.9165 -17.9088 -17.8726
    -2.0622  -1.7378  -0.9536  -0.8906  -0.6023  -0.5721  -0.5016  -0.4484
    -0.3966  -0.3340  -0.1443  -0.0770   0.1157   0.1510   0.1897   0.2306
     0.2523   0.2948   0.3228   0.3680   0.4139   0.4302   0.4696   0.4913
     0.5293   0.5785   0.6136   0.6307   0.6881   0.7207   0.7792   0.8548
     6.4229   6.7216   6.8433   7.2439   7.2807   7.3457   7.7418   7.9177
     8.0064   8.0964   8.1151   8.2197   8.2640   8.3215   8.3935   8.5777
     8.6168   8.6568   8.8344   8.8716   8.8907   9.0278   9.1218   9.1907
     9.2065   9.3131   9.4098   9.4264   9.4735   9.4819   9.5754   9.5957
     9.7308   9.8039   9.9128   9.9574  10.1012  10.1965  10.2843  10.3011
    10.3391  10.3508  10.3918  10.4067  10.4298  10.4853  10.5135  10.5746
    10.6684  10.7134  10.7300  10.7710  10.8811  10.9042  10.9253  10.9694
    11.0150  11.0737  11.0789  11.1321  11.1666  11.1985  11.2070  11.2487
    11.2659  11.3017  11.3605  11.3704  11.4288  11.4481  11.4553  11.4761
    11.4900  11.5930  11.6407  11.6499  11.6948  11.7172  11.7764  11.7863
    11.8339  11.8952  11.9307  11.9886  12.0304  12.0960  12.1727  12.2122
    12.3011  12.3620  12.3848  12.4960  12.9734  12.9858  13.3153  13.3316
    13.4555  14.4556  14.9576  15.0026  15.3927  15.4815  15.5672  15.6363
    15.6961  15.7984  15.8435  15.9819  16.0408  16.1675  16.2447  16.3813
    16.6834  16.8172  16.9030  16.9465  16.9973  17.0134  17.0573  17.0645
    17.0911  17.1379  17.1968  17.1989  17.2337  17.2791  17.2992  17.3087
    17.3213  17.4162  17.4274  17.4530  17.4845  17.5395  17.5796  17.6208
    17.6421  17.7113  17.7435  17.7621  17.7861  17.7962  17.8158  17.8305
    17.8662  17.9004  17.9257  17.9394  17.9764  17.9959

          k =-0.5000 0.0000 0.5000 ( 30888 PWs)   bands (ev):

   -42.0605 -42.0103 -41.9942 -41.9534 -41.8782 -41.8502 -41.8261 -41.8178
   -41.8071 -41.7896 -41.7835 -41.7734 -41.7646 -41.7556 -41.7479 -41.7418
   -41.7347 -41.7292 -41.7249 -41.6997 -18.5973 -18.4895 -18.4830 -18.4796
   -18.4725 -18.4627 -18.4428 -18.4342 -18.4214 -18.4066 -18.3988 -18.3836
   -18.3803 -18.3722 -18.3570 -18.3447 -18.3294 -18.3265 -18.3127 -18.2900
   -18.2879 -18.2800 -18.2758 -18.2663 -18.2523 -18.2303 -18.2237 -18.2079
   -18.1893 -18.1795 -18.1524 -18.1422 -18.1275 -18.1145 -18.1015 -18.0969
   -18.0827 -18.0663 -18.0587 -18.0537 -18.0488 -18.0452 -18.0383 -18.0291
   -18.0222 -18.0189 -18.0113 -18.0048 -17.9922 -17.9801 -17.9752 -17.9648
   -17.9630 -17.9475 -17.9400 -17.9327 -17.9266 -17.9240 -17.9074 -17.8761
    -1.8279  -1.5854  -1.3225  -1.2480  -0.6466  -0.4259  -0.3733  -0.3407
    -0.1918  -0.1644  -0.1555  -0.0827  -0.0321   0.0050   0.1367   0.1410
     0.1867   0.2111   0.2587   0.3301   0.4125   0.4534   0.4812   0.5365
     0.5449   0.5767   0.6384   0.6535   0.6942   0.7019   0.8204   0.9259
     6.5237   6.8183   7.2211   7.4786   7.5493   7.5553   7.6876   7.7271
     7.9167   8.0207   8.1116   8.1485   8.2780   8.3324   8.4606   8.5142
     8.6472   8.7420   8.7916   8.8469   8.8767   8.9598   9.0195   9.0575
     9.1210   9.1622   9.1813   9.2630   9.2756   9.3819   9.6297   9.6665
     9.7577   9.8245   9.9072  10.0342  10.0699  10.0753  10.1389  10.2551
    10.3899  10.4119  10.4558  10.4801  10.4977  10.5379  10.6109  10.6634
    10.7021  10.7273  10.7368  10.7452  10.8601  10.8921  10.9428  10.9636
    11.0096  11.0621  11.0699  11.0945  11.1306  11.1631  11.2198  11.2296
    11.2744  11.2861  11.3068  11.3328  11.3547  11.3636  11.4341  11.4540
    11.4704  11.5085  11.5489  11.6199  11.6376  11.6884  11.7104  11.7915
    11.8742  11.9738  11.9966  12.0163  12.1120  12.1435  12.1666  12.2947
    12.3567  12.4954  12.5257  12.5681  12.6487  12.7071  12.7417  13.0098
    15.0006  15.0884  15.2037  15.2503  15.4394  15.4830  15.5312  15.5774
    15.7911  15.8270  15.8848  15.9027  15.9752  16.1476  16.2818  16.2962
    16.3699  16.4620  16.5014  16.5106  16.5883  16.7212  16.7473  16.8395
    16.9483  16.9668  17.0271  17.0664  17.1087  17.1614  17.2343  17.2932
    17.3070  17.3466  17.4059  17.4215  17.4359  17.5639  17.5861  17.5910
    17.6131  17.6677  17.6792  17.7192  17.8094  17.8456  17.8729  17.9180
    17.9702  17.9898  18.0382  18.0717  18.0926  18.1078

          k =-0.5000 0.5000 0.0000 ( 30888 PWs)   bands (ev):

   -42.0605 -42.0104 -41.9942 -41.9533 -41.8778 -41.8490 -41.8293 -41.8218
   -41.8044 -41.7849 -41.7794 -41.7735 -41.7641 -41.7605 -41.7474 -41.7440
   -41.7326 -41.7303 -41.7272 -41.6978 -18.5747 -18.5040 -18.4942 -18.4822
   -18.4678 -18.4563 -18.4468 -18.4292 -18.4194 -18.4155 -18.3941 -18.3813
   -18.3767 -18.3700 -18.3657 -18.3526 -18.3428 -18.3240 -18.3184 -18.3113
   -18.3002 -18.2975 -18.2665 -18.2589 -18.2364 -18.2314 -18.2109 -18.1951
   -18.1796 -18.1684 -18.1437 -18.1345 -18.1294 -18.1091 -18.1037 -18.0991
   -18.0934 -18.0840 -18.0772 -18.0526 -18.0470 -18.0382 -18.0292 -18.0259
   -18.0191 -18.0120 -18.0074 -17.9937 -17.9895 -17.9867 -17.9705 -17.9638
   -17.9515 -17.9502 -17.9416 -17.9349 -17.9328 -17.9276 -17.9153 -17.8873
    -1.8462  -1.5157  -1.4494  -1.0991  -0.6175  -0.5223  -0.3711  -0.3541
    -0.3094  -0.2575  -0.0718  -0.0208   0.0387   0.0695   0.0906   0.1384
     0.1558   0.2027   0.2425   0.2830   0.3670   0.4676   0.5110   0.5168
     0.5564   0.6070   0.6758   0.6995   0.7167   0.7633   0.7870   0.8601
     6.6454   6.9245   6.9996   7.2982   7.4224   7.7327   7.7763   7.9134
     7.9509   7.9999   8.1120   8.1588   8.2884   8.3525   8.4568   8.5172
     8.5727   8.6096   8.6836   8.7661   8.8046   8.8653   8.9121   8.9970
     9.0464   9.0651   9.1444   9.3221   9.4522   9.5693   9.6443   9.6957
     9.8334   9.9017   9.9587  10.0532  10.1118  10.1535  10.1909  10.2809
    10.3600  10.3990  10.4841  10.5168  10.5395  10.5636  10.5999  10.6156
    10.6403  10.7655  10.7826  10.8213  10.8593  10.8916  10.9064  10.9669
    11.0115  11.0571  11.1113  11.1374  11.1464  11.1651  11.2043  11.2257
    11.2617  11.2719  11.3101  11.3564  11.3747  11.3843  11.4554  11.4685
    11.4827  11.4968  11.5616  11.5977  11.6098  11.6343  11.6782  11.7342
    11.7959  11.9186  11.9962  12.0889  12.1196  12.1416  12.2571  12.2780
    12.3896  12.4028  12.4274  12.4751  12.6172  12.6743  12.7452  12.9780
    14.9543  15.0856  15.2250  15.3267  15.3609  15.4033  15.5082  15.7065
    15.7309  15.8702  15.8882  15.9143  15.9777  16.1210  16.2701  16.2989
    16.3837  16.4020  16.4577  16.6254  16.6819  16.7485  16.7833  16.8833
    16.9375  17.0272  17.1080  17.1345  17.1781  17.2070  17.2771  17.2974
    17.3716  17.3917  17.3986  17.4161  17.4756  17.5487  17.5631  17.5694
    17.5946  17.6618  17.6774  17.7124  17.7170  17.7695  17.7728  17.7959
    17.8502  17.9236  17.9769  17.9989  18.0412  18.0774

     the Fermi energy is    15.8497 ev

!    total energy              =   -5057.56044295 Ry
     total all-electron energy =    -43491.293548 Ry
     estimated scf accuracy    <       0.00000025 Ry
     smearing contrib. (-TS)   =      -0.00586544 Ry
     internal energy E=F+TS    =   -5057.55457751 Ry

     The total energy is F=E-TS. E is the sum of the following terms:
     one-electron contribution =    -913.12113917 Ry
     hartree contribution      =     739.03857127 Ry
     xc contribution           =    -592.68472786 Ry
     ewald contribution        =   -2313.14079356 Ry
     one-center paw contrib.   =   -1977.64648818 Ry

     convergence has been achieved in  16 iterations

     Forces acting on atoms (cartesian axes, Ry/au):

     atom    1 type  1   force =     0.00168226   -0.00252720    0.00058203
     atom    2 type  2   force =    -0.06320170   -0.00691300   -0.05946255
     atom    3 type  3   force =     0.03414025   -0.02904394    0.03127311
     atom    4 type  2   force =     0.00322579   -0.00535503    0.00424907
     atom    5 type  3   force =    -0.00625496    0.02644761   -0.00046573
     atom    6 type  2   force =    -0.06889118   -0.00723743   -0.05823989
     atom    7 type  3   force =     0.04026826    0.01855378    0.01584657
     atom    8 type  2   force =    -0.00120758    0.00688755   -0.00281817
     atom    9 type  3   force =    -0.01092347    0.02941784   -0.03864020
     atom   10 type  2   force =    -0.00555713   -0.05845668    0.06028248
     atom   11 type  3   force =     0.01647428   -0.00379302   -0.02939453
     atom   12 type  2   force =    -0.00302805   -0.05788754   -0.00263209
     atom   13 type  1   force =     0.00000874   -0.00060506   -0.00096217
     atom   14 type  2   force =    -0.00943859   -0.05074281    0.05782448
     atom   15 type  3   force =     0.01099445   -0.00055439   -0.01572074
     atom   16 type  2   force =     0.00609589    0.06188212    0.00480256
     atom   17 type  1   force =     0.00044917    0.00277255   -0.00086046
     atom   18 type  2   force =    -0.06643816    0.00836907   -0.00318425
     atom   19 type  3   force =     0.03777892    0.02719411    0.02101222
     atom   20 type  2   force =     0.05206408    0.00305953    0.05527614
     atom   21 type  3   force =     0.01409923   -0.03032008   -0.02391587
     atom   22 type  2   force =    -0.06971446    0.00782066   -0.00644195
     atom   23 type  3   force =     0.03539694   -0.01757706    0.01188945
     atom   24 type  2   force =    -0.05213475   -0.00661895   -0.04698684
     atom   25 type  1   force =     0.00190769   -0.00081387    0.00077741
     atom   26 type  2   force =    -0.06266080    0.05741533    0.00186455
     atom   27 type  1   force =     0.00226744   -0.00004129    0.00058562
     atom   28 type  2   force =    -0.05005740    0.05845709   -0.05363668
     atom   29 type  3   force =     0.05535345   -0.02166419    0.02392088
     atom   30 type  2   force =    -0.06203849    0.04998985    0.00402249
     atom   31 type  1   force =     0.00036586    0.00024071    0.00112975
     atom   32 type  2   force =     0.05376136   -0.06288714    0.04746396
     atom   33 type  3   force =    -0.03592386    0.03163584   -0.00325084
     atom   34 type  2   force =     0.06281690   -0.04877423   -0.00263125
     atom   35 type  3   force =    -0.02738741   -0.00092729    0.00298628
     atom   36 type  2   force =    -0.00213050   -0.00010254   -0.00250146
     atom   37 type  1   force =    -0.00080893   -0.00025449   -0.00047981
     atom   38 type  2   force =     0.06510207   -0.05795579   -0.00341941
     atom   39 type  3   force =    -0.04242757   -0.00296799    0.00066011
     atom   40 type  2   force =     0.00602241    0.00373208    0.00617039
     atom   41 type  3   force =     0.00845938    0.03317195    0.00209767
     atom   42 type  2   force =     0.00862506   -0.00781824    0.00376598
     atom   43 type  3   force =    -0.01801487    0.02088161   -0.00200747
     atom   44 type  2   force =     0.00278015   -0.00331418    0.00303778
     atom   45 type  1   force =     0.00083704   -0.00098345    0.00083104
     atom   46 type  2   force =     0.01102771   -0.00806719    0.00165968
     atom   47 type  3   force =    -0.01227748   -0.03013386   -0.00049615
     atom   48 type  2   force =    -0.00854182    0.00796751   -0.00643703
     atom   49 type  3   force =    -0.05267049   -0.02913029   -0.02596147
     atom   50 type  2   force =     0.06515467    0.04827705    0.00009715
     atom   51 type  1   force =    -0.00176924   -0.00013061   -0.00080840
     atom   52 type  2   force =    -0.05187876    0.00178555   -0.04323139
     atom   53 type  1   force =    -0.00100257    0.00011713   -0.00119320
     atom   54 type  2   force =     0.06636747    0.05854185   -0.00093204
     atom   55 type  1   force =    -0.00010498   -0.00043896   -0.00015065
     atom   56 type  2   force =     0.05369129   -0.00278121    0.05722210
     atom   57 type  3   force =    -0.01795903   -0.03203319    0.02470367
     atom   58 type  2   force =     0.06239057    0.00685193   -0.00001251
     atom   59 type  3   force =    -0.02177503   -0.02117556    0.00300936
     atom   60 type  2   force =     0.05078256    0.00345649    0.04391268
     atom   61 type  1   force =    -0.00100999    0.00097642    0.00140449
     atom   62 type  2   force =     0.06360350    0.01009947   -0.00057498
     atom   63 type  3   force =    -0.01373886    0.03181787   -0.00018074
     atom   64 type  2   force =    -0.05302676   -0.00779277   -0.05673027

     Total force =     0.427420     Total SCF correction =     0.001964


     Computing stress (Cartesian axis) and pressure

          total   stress  (Ry/bohr**3)                   (kbar)     P=       59.85
   0.00043081  -0.00002774   0.00005068           63.37       -4.08        7.45
  -0.00002774   0.00040771  -0.00002829           -4.08       59.98       -4.16
   0.00005068  -0.00002829   0.00038213            7.45       -4.16       56.21


     BFGS Geometry Optimization
     Energy error            =      0.0E+00 Ry
     Gradient error          =      7.0E-02 Ry/Bohr

     number of scf cycles    =   1
     number of bfgs steps    =   0

     energy             new  =   -5057.5604429483 Ry

     new trust radius        =       0.0953829340 bohr
     new conv_thr            =       0.0000010000 Ry


ATOMIC_POSITIONS (angstrom)
Al            0.0008902135       -0.0013373382        0.0003079959
N             2.0546800990       -0.0036582034       -0.0314662250
Ti            0.0180662424        2.0727556084        2.1046740145
N             2.0898320151        2.0852912414        2.0903735119
Ti            2.0848150200        0.0139954714        2.0878785464
N            -0.0364556430       -0.0038298850        2.0573057767
Ti            2.1094340477        2.0979432350        0.0083856432
N            -0.0006390246        2.0917697335       -0.0014913094
Ti           -0.0057804512        0.0155672523        4.1558024886
N             2.0851842933       -0.0309339432        4.2081501145
Ti            0.0087178149        2.0861178214        6.2488200833
N             2.0865226247        2.0574922334        6.2629821578
Al            2.0881296270       -0.0003201837        6.2638658391
N            -0.0049946875       -0.0268519366        6.2949743971
Ti            2.0939430113        2.0878316273        4.1679309447
N             0.0032258056        2.1208716062        4.1787914058
Al            0.0002376909        4.1777171702       -0.0004553371
N             2.0529674404        4.1806787222       -0.0016850323
Ti            0.0199917453        6.2787655034        2.0992441881
N             2.1156761268        6.2659940348        2.1173758759
Ti            2.0955859923        4.1602053054        2.0754692652
N            -0.0368913033        4.1803885174        2.0847160669
Ti            2.1068562537        6.2550736202        0.0062916245
N            -0.0275885221        6.2608724042       -0.0248643626
Al            0.0010095052        4.1758193166        4.1766613899
N             2.0549663307        4.2066328847        4.1772366774
Al            0.0011998791        6.2643531494        6.2646848980
N             2.0616357649        6.2953091611        6.2359916897
Ti            2.1174167851        4.1647858026        6.2770333857
N            -0.0328293535        4.2027034905        6.2665036082
Al            2.0883186053        6.2645023786        4.1768478381
N             0.0284492888        6.2310965596        4.2013668467
Ti            4.1572399140        0.0167409648       -0.0017202682
N             6.2976162739       -0.0258102093       -0.0013923953
Ti            4.1617572076        2.0876342970        2.0897052714
N             6.2632475879        2.0880707357        2.0868012833
Al            6.2639469316       -0.0001346705        2.0878710957
N             4.2107005343       -0.0306688848        2.0863155283
Ti            6.2419232966        2.0865544056        0.0003493149
N             4.1794369219        2.0900999308        0.0032652277
Ti            4.1807265137        0.0175538399        4.1773600393
N             6.2689391869       -0.0041372326        4.1782428724
Ti            4.1667169432        2.0991750729        6.2633126936
N             6.2658461903        2.0863712091        6.2659825266
Al            6.2648179410       -0.0005204218        6.2648147659
N             4.1820856140       -0.0042689755        6.2652532666
Ti            6.2578780393        2.0721788479        4.1759874507
N             4.1717298660        2.0923412246        4.1728436727
Ti            4.1483779755        4.1608349144       -0.0137382166
N             6.2988533683        4.2017971125        0.0000514087
Al            4.1753137560        6.2643058842        2.0876972132
N             6.2369219435        6.2653198745        2.0652479344
Al            6.2638444654        4.1763119827        2.0874935877
N             4.2113701514        4.2072290139        2.0876317862
Al            6.2643194461        6.2641427140       -0.0000797213
N             4.2046622056        6.2629032463        0.0302806301
Ti            4.1667464887        4.1592987646        4.1893226197
N             6.2973906694        4.1798758841        4.1762433796
Ti            4.1647271479        6.2531693738        6.2659674863
N             6.2912479725        6.2662040981        6.2876125892
Al            6.2638405352        4.1767667004        6.2651182232
N             4.2099075217        4.1815944086        6.2640707361
Ti            6.2571047067        6.2812122902        4.1761543553
N             4.1481894463        6.2602512428        4.1462296350



     Writing config-only to output data dir ../output/relax_sqs_all_x/tmp_x0375/TiAlN_x0375_relax.save/
     NEW-OLD atomic charge density approx. for the potential

     Check: negative core charge=   -0.000024

     total cpu time spent up to now is      163.0 secs

     Self-consistent Calculation

     iteration #  1     ecut=    60.00 Ry     beta= 0.20
     Davidson diagonalization with overlap
     c_bands:  4 eigenvalues not converged
     c_bands:  1 eigenvalues not converged
     ethr =  1.00E-06,  avg # of iterations = 17.4

     total cpu time spent up to now is      188.5 secs

     total energy              =   -5057.71361184 Ry
     estimated scf accuracy    <       0.08106921 Ry

     iteration #  2     ecut=    60.00 Ry     beta= 0.20
     Davidson diagonalization with overlap
     ethr =  1.86E-05,  avg # of iterations =  1.0

     total cpu time spent up to now is      194.4 secs

     total energy              =   -5057.70065914 Ry
     estimated scf accuracy    <       0.05102193 Ry

     iteration #  3     ecut=    60.00 Ry     beta= 0.20
     Davidson diagonalization with overlap
     ethr =  1.17E-05,  avg # of iterations =  2.0

     total cpu time spent up to now is      200.9 secs

     total energy              =   -5057.70032383 Ry
     estimated scf accuracy    <       0.01775535 Ry

     iteration #  4     ecut=    60.00 Ry     beta= 0.20
     Davidson diagonalization with overlap
     ethr =  4.07E-06,  avg # of iterations =  2.0

     total cpu time spent up to now is      207.6 secs

     total energy              =   -5057.70086230 Ry
     estimated scf accuracy    <       0.00418296 Ry

     iteration #  5     ecut=    60.00 Ry     beta= 0.20
     Davidson diagonalization with overlap
     ethr =  9.59E-07,  avg # of iterations =  9.4

     total cpu time spent up to now is      218.8 secs

     total energy              =   -5057.70114985 Ry
     estimated scf accuracy    <       0.00172612 Ry

     iteration #  6     ecut=    60.00 Ry     beta= 0.20
     Davidson diagonalization with overlap
     ethr =  3.96E-07,  avg # of iterations =  2.0

     total cpu time spent up to now is      225.4 secs

     total energy              =   -5057.70117044 Ry
     estimated scf accuracy    <       0.00034633 Ry

     iteration #  7     ecut=    60.00 Ry     beta= 0.20
     Davidson diagonalization with overlap
     ethr =  7.94E-08,  avg # of iterations =  7.2

     total cpu time spent up to now is      236.4 secs

     total energy              =   -5057.70123071 Ry
     estimated scf accuracy    <       0.00011791 Ry

     iteration #  8     ecut=    60.00 Ry     beta= 0.20
     Davidson diagonalization with overlap
     ethr =  2.70E-08,  avg # of iterations =  4.8

     total cpu time spent up to now is      243.7 secs

     total energy              =   -5057.70123309 Ry
     estimated scf accuracy    <       0.00004826 Ry

     iteration #  9     ecut=    60.00 Ry     beta= 0.20
     Davidson diagonalization with overlap
     ethr =  1.11E-08,  avg # of iterations =  7.0

     total cpu time spent up to now is      253.2 secs

     total energy              =   -5057.70123467 Ry
     estimated scf accuracy    <       0.00001770 Ry

     iteration # 10     ecut=    60.00 Ry     beta= 0.20
     Davidson diagonalization with overlap
     ethr =  4.06E-09,  avg # of iterations = 10.0

     total cpu time spent up to now is      262.8 secs

     total energy              =   -5057.70123600 Ry
     estimated scf accuracy    <       0.00000523 Ry

     iteration # 11     ecut=    60.00 Ry     beta= 0.20
     Davidson diagonalization with overlap
     ethr =  1.20E-09,  avg # of iterations =  5.6

     total cpu time spent up to now is      271.4 secs

     total energy              =   -5057.70123619 Ry
     estimated scf accuracy    <       0.00000169 Ry

     iteration # 12     ecut=    60.00 Ry     beta= 0.20
     Davidson diagonalization with overlap
     ethr =  3.88E-10,  avg # of iterations =  5.4

     total cpu time spent up to now is      278.7 secs

     End of self-consistent calculation

          k = 0.0000 0.0000 0.0000 ( 31031 PWs)   bands (ev):

   -42.2163 -42.2004 -42.1107 -42.1091 -41.9970 -41.9576 -41.9413 -41.9220
   -41.9105 -41.8898 -41.8751 -41.8726 -41.8538 -41.8438 -41.8375 -41.8321
   -41.8187 -41.8120 -41.8001 -41.7850 -18.7045 -18.6707 -18.6484 -18.6226
   -18.6061 -18.5813 -18.5629 -18.5419 -18.5172 -18.5146 -18.5073 -18.4862
   -18.4840 -18.4664 -18.4558 -18.4489 -18.4199 -18.4062 -18.4000 -18.3919
   -18.3845 -18.3737 -18.3574 -18.3488 -18.3424 -18.3361 -18.3283 -18.3234
   -18.2924 -18.2857 -18.2793 -18.2692 -18.2393 -18.2291 -18.2167 -18.2012
   -18.1961 -18.1723 -18.1667 -18.1548 -18.1441 -18.1312 -18.1279 -18.1173
   -18.1053 -18.0909 -18.0835 -18.0763 -18.0684 -18.0578 -18.0542 -18.0409
   -18.0328 -18.0225 -18.0199 -18.0122 -18.0055 -18.0002 -17.9968 -17.9686
    -2.3272  -1.1471  -1.1012  -1.0464  -0.8960  -0.8308  -0.7430  -0.1716
    -0.1075  -0.0617  -0.0582  -0.0093   0.0135   0.0568   0.0789   0.1161
     0.1714   0.2027   0.2388   0.3159   0.3239   0.4002   0.4667   0.4987
     0.5606   0.5859   0.6021   0.6707   0.7030   0.7515   0.7948   0.8554
     5.9367   6.5258   6.9493   7.1208   7.5548   7.8684   7.9085   7.9781
     8.0877   8.1512   8.1959   8.3550   8.4134   8.4574   8.4657   8.5349
     8.6333   8.7338   8.7944   8.8882   8.9341   8.9837   9.1493   9.2239
     9.2396   9.2696   9.4013   9.4383   9.4439   9.5196   9.5594   9.6060
     9.6668   9.7376   9.8927   9.9067   9.9443   9.9774  10.0092  10.1251
    10.1478  10.1754  10.1927  10.2343  10.2453  10.2827  10.2931  10.3044
    10.3370  10.4228  10.5359  10.5946  10.6086  10.6482  10.6863  10.7201
    10.7731  10.8834  10.9522  10.9753  11.0537  11.1093  11.1575  11.1802
    11.3178  11.3433  11.3795  11.3868  11.4227  11.4311  11.5849  11.6806
    11.8086  11.8413  11.8777  11.9461  12.0823  12.1704  12.1791  12.2566
    12.2902  12.3224  12.3326  12.3515  12.4115  12.4414  12.5099  12.5407
    12.5823  12.6151  12.6754  12.6995  12.7743  13.2786  13.3687  13.5588
    13.7257  13.7426  13.7519  14.4171  14.5021  14.6053  14.7726  14.9442
    14.9827  15.8412  15.9701  16.0780  16.6341  16.7374  16.8045  16.8264
    16.8486  16.8791  16.8905  16.9031  16.9840  16.9951  17.0132  17.0354
    17.0836  17.0973  17.1464  17.1674  17.2701  17.3008  17.3372  17.3502
    17.3835  17.4051  17.4147  17.4663  17.4858  17.5103  17.5363  17.5531
    17.5599  17.5817  17.5978  17.6202  17.6303  17.6422  17.6746  17.6853
    17.6919  17.7027  17.7538  17.7638  17.7803  17.8007

          k = 0.0000 0.0000-0.5000 ( 30814 PWs)   bands (ev):

   -42.2163 -42.2003 -42.1106 -42.1092 -41.9964 -41.9585 -41.9402 -41.9228
   -41.9098 -41.8905 -41.8780 -41.8738 -41.8533 -41.8394 -41.8377 -41.8294
   -41.8190 -41.8122 -41.8018 -41.7858 -18.6803 -18.6505 -18.6264 -18.6124
   -18.6063 -18.5827 -18.5674 -18.5611 -18.5393 -18.5178 -18.5040 -18.4968
   -18.4832 -18.4795 -18.4685 -18.4512 -18.4395 -18.4219 -18.4163 -18.4127
   -18.4007 -18.3869 -18.3746 -18.3565 -18.3556 -18.3303 -18.3130 -18.3119
   -18.2834 -18.2703 -18.2613 -18.2477 -18.2348 -18.2176 -18.2121 -18.1828
   -18.1718 -18.1666 -18.1518 -18.1472 -18.1249 -18.1228 -18.1159 -18.1110
   -18.0987 -18.0943 -18.0812 -18.0734 -18.0689 -18.0640 -18.0586 -18.0515
   -18.0470 -18.0358 -18.0262 -18.0226 -18.0094 -18.0064 -17.9996 -17.9821
    -2.0086  -1.8559  -0.8368  -0.7301  -0.7090  -0.6556  -0.6332  -0.5962
    -0.4009  -0.3638  -0.1613  -0.1400   0.0952   0.1759   0.2194   0.2377
     0.2775   0.2865   0.3066   0.3451   0.3651   0.3720   0.4257   0.5095
     0.5443   0.5728   0.5994   0.6302   0.6497   0.7180   0.7409   0.7857
     6.4426   6.6972   7.0019   7.2812   7.4385   7.5562   7.6405   7.7737
     8.0094   8.0981   8.2114   8.2745   8.3890   8.4220   8.6170   8.6482
     8.7022   8.7567   8.7882   8.8944   8.9593   8.9777   9.0430   9.1009
     9.1409   9.2318   9.2675   9.3277   9.3832   9.4058   9.4563   9.4590
     9.5361   9.5703   9.9164  10.0595  10.0955  10.1580  10.2373  10.2659
    10.2919  10.3510  10.4158  10.4698  10.5227  10.5356  10.5459  10.5710
    10.6330  10.6531  10.7035  10.7490  10.7611  10.7961  10.8498  10.8749
    11.0356  11.0876  11.1170  11.1221  11.1387  11.2044  11.2358  11.2735
    11.2935  11.3157  11.3519  11.4064  11.4230  11.4589  11.4694  11.5256
    11.5547  11.6032  11.6191  11.6421  11.6898  11.7643  11.7784  11.8598
    11.9060  11.9937  12.0111  12.0846  12.1322  12.1835  12.2487  12.2926
    12.3309  12.3616  12.4046  12.4777  13.0957  13.1110  13.1248  13.1902
    13.7182  13.9516  14.8884  14.9448  14.9965  15.0679  15.3113  15.5468
    15.6572  15.7101  15.7219  15.8148  15.9097  16.0017  16.2031  16.3059
    16.5694  16.6853  16.7968  16.8200  16.8731  16.9037  17.0052  17.0212
    17.0810  17.1259  17.1365  17.1492  17.2018  17.2363  17.2640  17.2697
    17.2945  17.3305  17.3376  17.3641  17.3824  17.4253  17.4464  17.4690
    17.4899  17.4979  17.5578  17.6197  17.6378  17.6694  17.7020  17.7392
    17.7584  17.7862  17.8063  17.8161  17.8465  17.8838

          k = 0.0000-0.5000-0.5000 ( 30888 PWs)   bands (ev):

   -42.2163 -42.2003 -42.1107 -42.1091 -41.9961 -41.9571 -41.9418 -41.9248
   -41.9102 -41.8900 -41.8766 -41.8733 -41.8524 -41.8397 -41.8382 -41.8290
   -41.8187 -41.8130 -41.8018 -41.7860 -18.6785 -18.6509 -18.6132 -18.6098
   -18.6073 -18.5787 -18.5722 -18.5525 -18.5445 -18.5261 -18.5122 -18.4968
   -18.4916 -18.4786 -18.4569 -18.4485 -18.4409 -18.4318 -18.4253 -18.4034
   -18.3970 -18.3923 -18.3797 -18.3605 -18.3477 -18.3297 -18.3222 -18.3016
   -18.2922 -18.2837 -18.2562 -18.2314 -18.2279 -18.2108 -18.1990 -18.1834
   -18.1754 -18.1686 -18.1585 -18.1458 -18.1238 -18.1187 -18.1175 -18.1139
   -18.1060 -18.0957 -18.0897 -18.0856 -18.0712 -18.0665 -18.0637 -18.0563
   -18.0481 -18.0299 -18.0182 -18.0135 -18.0108 -18.0087 -17.9933 -17.9761
    -1.7713  -1.6009  -1.4302  -1.3035  -0.5573  -0.4492  -0.4384  -0.2987
    -0.2476  -0.1987  -0.1684  -0.1166   0.0107   0.0153   0.0810   0.1276
     0.1442   0.1658   0.2415   0.2868   0.3777   0.4456   0.5104   0.5271
     0.5479   0.5924   0.6130   0.6244   0.6727   0.6933   0.7361   0.8147
     6.7663   6.9986   7.0930   7.2409   7.2750   7.5298   7.5567   7.8597
     7.8846   8.0936   8.2315   8.2926   8.3439   8.4226   8.4516   8.5018
     8.6760   8.7228   8.7641   8.7772   8.8130   8.8439   9.0257   9.0421
     9.1064   9.1916   9.2914   9.3858   9.4712   9.5120   9.6879   9.7014
     9.8900   9.9626   9.9716  10.0855  10.1494  10.1529  10.3009  10.3284
    10.3577  10.4842  10.5055  10.5282  10.5469  10.5748  10.6053  10.6346
    10.6771  10.7290  10.7822  10.8406  10.8649  10.8925  10.9361  10.9428
    11.0002  11.0181  11.0792  11.1101  11.1709  11.1800  11.2077  11.2173
    11.2555  11.2687  11.3026  11.3159  11.3264  11.3553  11.3690  11.3925
    11.4178  11.4467  11.4745  11.5131  11.5871  11.6178  11.6336  11.7026
    11.7689  11.7885  11.8928  11.9829  12.0417  12.1154  12.3308  12.3593
    12.3759  12.4129  12.4317  12.4575  12.4809  12.5688  12.7556  12.9882
    14.8823  14.9738  15.0317  15.0885  15.2853  15.3630  15.4849  15.5461
    15.6138  15.6362  15.6859  15.7159  15.9490  16.0689  16.0995  16.1753
    16.2019  16.3191  16.3356  16.3781  16.4713  16.4998  16.5683  16.5768
    16.7791  16.8381  16.8712  16.9967  17.0175  17.0898  17.1299  17.1937
    17.2365  17.2667  17.2814  17.3091  17.3306  17.3978  17.4270  17.4960
    17.5611  17.5988  17.6786  17.6949  17.7505  17.7666  17.7933  17.8501
    17.8686  17.8901  17.9264  17.9395  17.9696  18.0067

          k =-0.5000-0.5000-0.5000 ( 30688 PWs)   bands (ev):

   -42.2162 -42.2003 -42.1106 -42.1091 -41.9961 -41.9570 -41.9375 -41.9283
   -41.9160 -41.8852 -41.8763 -41.8714 -41.8540 -41.8397 -41.8377 -41.8287
   -41.8192 -41.8133 -41.8018 -41.7861 -18.6919 -18.6591 -18.6163 -18.6106
   -18.6026 -18.5725 -18.5652 -18.5560 -18.5283 -18.5218 -18.5138 -18.4966
   -18.4855 -18.4653 -18.4549 -18.4456 -18.4264 -18.4234 -18.4165 -18.4076
   -18.3996 -18.3936 -18.3765 -18.3632 -18.3514 -18.3376 -18.3329 -18.3181
   -18.3148 -18.2977 -18.2664 -18.2466 -18.2139 -18.1947 -18.1897 -18.1836
   -18.1757 -18.1614 -18.1522 -18.1450 -18.1404 -18.1254 -18.1156 -18.1136
   -18.1061 -18.1016 -18.0945 -18.0872 -18.0789 -18.0664 -18.0602 -18.0534
   -18.0417 -18.0327 -18.0168 -18.0115 -18.0069 -18.0020 -17.9909 -17.9697
    -1.6036  -1.3498  -1.2285  -1.1539  -1.0926  -0.9899  -0.7922  -0.6953
    -0.0783  -0.0008   0.0815   0.0928   0.1259   0.1599   0.2033   0.2309
     0.2440   0.2535   0.2941   0.3016   0.3291   0.3554   0.3772   0.4497
     0.4738   0.5005   0.5340   0.6050   0.6458   0.6860   0.7649   0.8384
     6.9443   7.1641   7.1955   7.3729   7.4405   7.5516   7.7408   7.7788
     7.8989   8.0299   8.0425   8.2131   8.2679   8.3239   8.4237   8.5293
     8.6098   8.6982   8.7244   8.8868   8.9867   9.0224   9.0719   9.1506
     9.3404   9.3898   9.4847   9.5360   9.6482   9.7388   9.7996   9.8450
     9.8927   9.9434   9.9959  10.0106  10.0370  10.0382  10.1089  10.1233
    10.1729  10.2090  10.2566  10.2655  10.2970  10.3376  10.3915  10.4081
    10.4701  10.5147  10.5464  10.5886  10.6234  10.6879  10.7135  10.7688
    10.9233  10.9811  10.9933  11.0101  11.0500  11.0666  11.1105  11.1350
    11.1747  11.1968  11.2444  11.2603  11.3256  11.3318  11.3739  11.4365
    11.4931  11.5201  11.5705  11.6622  11.7282  11.8117  11.8977  11.9842
    12.0105  12.0318  12.0528  12.1231  12.2188  12.2718  12.3389  12.3809
    12.4737  12.5190  12.5214  12.5585  12.6182  12.6472  12.8829  12.9160
    15.2348  15.3148  15.3358  15.3710  15.3951  15.4352  15.5311  15.6141
    15.6406  15.7124  15.7316  15.7740  15.8224  15.8518  15.8982  15.9393
    16.0337  16.0982  16.1336  16.1766  16.2080  16.3882  16.4338  16.5072
    16.5601  16.5739  16.6406  16.7006  16.7725  16.8273  16.8861  16.9366
    16.9769  17.0134  17.0188  17.0542  17.0794  17.3646  17.4072  17.5726
    17.6556  17.7154  17.7907  17.8594  17.8723  17.8885  17.8970  17.9610
    18.0256  18.0443  18.0741  18.0912  18.1104  18.1448

          k =-0.5000 0.0000 0.0000 ( 30814 PWs)   bands (ev):

   -42.2162 -42.2003 -42.1107 -42.1091 -41.9969 -41.9576 -41.9378 -41.9252
   -41.9156 -41.8852 -41.8738 -41.8717 -41.8552 -41.8435 -41.8372 -41.8320
   -41.8194 -41.8123 -41.8001 -41.7850 -18.6784 -18.6472 -18.6245 -18.6163
   -18.6077 -18.5925 -18.5798 -18.5587 -18.5412 -18.5260 -18.5103 -18.5005
   -18.4925 -18.4842 -18.4567 -18.4425 -18.4350 -18.4180 -18.4089 -18.3928
   -18.3900 -18.3759 -18.3629 -18.3520 -18.3379 -18.3344 -18.3245 -18.3156
   -18.2921 -18.2689 -18.2576 -18.2543 -18.2382 -18.2099 -18.2058 -18.1849
   -18.1770 -18.1727 -18.1709 -18.1481 -18.1401 -18.1291 -18.1274 -18.1189
   -18.1100 -18.0921 -18.0910 -18.0761 -18.0710 -18.0585 -18.0505 -18.0454
   -18.0336 -18.0297 -18.0240 -18.0198 -18.0063 -18.0018 -17.9987 -17.9786
    -2.0795  -1.7314  -0.8860  -0.8071  -0.7324  -0.6699  -0.6059  -0.4989
    -0.3916  -0.3098  -0.2184  -0.1390   0.0708   0.1038   0.1631   0.1676
     0.1867   0.2596   0.3117   0.3574   0.3725   0.4010   0.4503   0.4798
     0.5391   0.5677   0.6096   0.6556   0.7054   0.7819   0.7991   0.8854
     6.3131   6.8157   7.1514   7.3789   7.5440   7.6759   7.8183   7.9404
     8.1232   8.1389   8.1688   8.2338   8.2736   8.3311   8.4170   8.5800
     8.6378   8.6787   8.7590   8.8090   8.9172   8.9476   8.9942   9.0265
     9.0802   9.1131   9.1558   9.2806   9.3275   9.4022   9.4196   9.4754
     9.5540   9.7965   9.9673  10.0074  10.0654  10.0892  10.1706  10.2274
    10.2821  10.3055  10.3163  10.3336  10.3602  10.3775  10.4739  10.5102
    10.5224  10.5706  10.5858  10.6275  10.7414  10.8190  10.8888  10.9406
    10.9729  11.0132  11.0296  11.1360  11.1531  11.1783  11.2080  11.2527
    11.2956  11.3454  11.3706  11.3827  11.4136  11.4462  11.4988  11.5660
    11.6773  11.7140  11.7302  11.7630  11.7813  11.8211  11.8802  11.9061
    12.0215  12.0548  12.1480  12.2651  12.3117  12.3288  12.3398  12.3517
    12.3988  12.4271  12.4892  12.6538  13.0873  13.1359  13.1931  13.2041
    13.4273  14.1995  14.7247  14.7682  15.1329  15.2151  15.2915  15.3932
    15.5022  15.6857  15.7131  15.8161  15.9462  16.2263  16.4077  16.5196
    16.6720  16.7263  16.7394  16.8901  16.9679  16.9704  17.0023  17.0229
    17.0521  17.0672  17.0819  17.1154  17.1373  17.2181  17.2376  17.2504
    17.2978  17.3041  17.3372  17.3572  17.4135  17.4164  17.4312  17.4400
    17.4890  17.5583  17.5837  17.6114  17.6199  17.6412  17.6771  17.7039
    17.7365  17.7689  17.7946  17.8093  17.8378  17.8622

          k = 0.0000-0.5000 0.0000 ( 30814 PWs)   bands (ev):

   -42.2163 -42.2003 -42.1106 -42.1091 -41.9963 -41.9568 -41.9440 -41.9234
   -41.9089 -41.8896 -41.8749 -41.8721 -41.8523 -41.8443 -41.8369 -41.8325
   -41.8187 -41.8126 -41.8002 -41.7852 -18.6932 -18.6731 -18.6413 -18.6139
   -18.6044 -18.5760 -18.5643 -18.5294 -18.5192 -18.4974 -18.4946 -18.4920
   -18.4790 -18.4707 -18.4658 -18.4543 -18.4468 -18.4325 -18.4230 -18.4066
   -18.3976 -18.3936 -18.3777 -18.3669 -18.3492 -18.3321 -18.3253 -18.3158
   -18.2798 -18.2723 -18.2609 -18.2488 -18.2394 -18.2126 -18.2063 -18.1915
   -18.1761 -18.1697 -18.1672 -18.1519 -18.1453 -18.1288 -18.1239 -18.1011
   -18.0940 -18.0879 -18.0781 -18.0723 -18.0696 -18.0647 -18.0557 -18.0546
   -18.0390 -18.0315 -18.0245 -18.0194 -18.0105 -18.0051 -18.0018 -17.9697
    -2.0594  -1.7529  -0.9780  -0.9276  -0.6073  -0.5838  -0.4929  -0.4734
    -0.4236  -0.3691  -0.2211  -0.1387   0.0047   0.1532   0.1793   0.2148
     0.2445   0.2684   0.3418   0.3732   0.3951   0.4519   0.4710   0.4862
     0.5096   0.5239   0.5886   0.6110   0.6902   0.7061   0.7562   0.8271
     6.4392   6.8029   6.9493   7.3164   7.3319   7.4748   7.7507   7.9740
     8.0518   8.0875   8.1351   8.1736   8.2902   8.3743   8.4268   8.5988
     8.6206   8.6610   8.8294   8.8620   8.8771   9.0223   9.0868   9.1621
     9.1904   9.2722   9.3345   9.3851   9.3955   9.4285   9.5503   9.5693
     9.7222   9.7877   9.8662   9.9588  10.1300  10.1894  10.2156  10.2402
    10.2641  10.2776  10.3012  10.3636  10.4152  10.4611  10.5192  10.5639
    10.6376  10.6604  10.7350  10.7406  10.8267  10.8562  10.9372  11.0126
    11.0497  11.0669  11.1377  11.1536  11.1710  11.1972  11.2334  11.2506
    11.3027  11.3270  11.3826  11.4121  11.4328  11.4640  11.5021  11.5373
    11.5655  11.5850  11.6293  11.6380  11.6711  11.7155  11.7346  11.8089
    11.9019  11.9861  11.9986  12.0555  12.0934  12.1669  12.1868  12.2177
    12.3729  12.4008  12.4321  12.4759  13.0545  13.0808  13.2247  13.2318
    13.3087  14.3223  14.7253  14.7678  15.2965  15.3422  15.4090  15.4778
    15.5115  15.6707  15.7253  15.8179  15.9438  16.0667  16.1192  16.3042
    16.5396  16.6770  16.7827  16.8415  16.8642  16.8924  16.9166  16.9495
    16.9644  16.9909  17.0656  17.0999  17.1391  17.1572  17.1800  17.2085
    17.2231  17.3049  17.3109  17.3714  17.4130  17.4551  17.4958  17.5167
    17.5443  17.6301  17.6511  17.6620  17.6875  17.6920  17.7417  17.7529
    17.7939  17.8236  17.8262  17.8665  17.8986  17.9077

          k =-0.5000 0.0000 0.5000 ( 30888 PWs)   bands (ev):

   -42.2163 -42.2003 -42.1106 -42.1092 -41.9965 -41.9583 -41.9367 -41.9258
   -41.9155 -41.8862 -41.8774 -41.8717 -41.8549 -41.8395 -41.8372 -41.8293
   -41.8195 -41.8126 -41.8018 -41.7858 -18.6934 -18.6567 -18.6158 -18.6119
   -18.6050 -18.5826 -18.5581 -18.5462 -18.5273 -18.5171 -18.5037 -18.4893
   -18.4877 -18.4841 -18.4663 -18.4546 -18.4331 -18.4323 -18.4162 -18.4108
   -18.4015 -18.3831 -18.3803 -18.3686 -18.3656 -18.3328 -18.3301 -18.3206
   -18.2880 -18.2779 -18.2484 -18.2438 -18.2270 -18.2081 -18.1983 -18.1823
   -18.1729 -18.1670 -18.1499 -18.1380 -18.1311 -18.1245 -18.1175 -18.1108
   -18.1078 -18.1001 -18.0889 -18.0787 -18.0731 -18.0642 -18.0592 -18.0461
   -18.0451 -18.0354 -18.0275 -18.0205 -18.0118 -18.0030 -17.9984 -17.9706
    -1.8134  -1.5913  -1.3711  -1.2840  -0.6068  -0.4583  -0.3671  -0.3371
    -0.2365  -0.1802  -0.1574  -0.1063  -0.0983  -0.0397   0.0654   0.0681
     0.1253   0.1616   0.2845   0.3194   0.3718   0.4037   0.4174   0.5378
     0.5435   0.5841   0.5926   0.6149   0.7247   0.7761   0.8206   0.9159
     6.5422   6.8859   7.2927   7.5407   7.5832   7.6364   7.7972   7.8585
     7.9521   8.0659   8.1397   8.1873   8.3275   8.3927   8.4592   8.5036
     8.6546   8.6729   8.7530   8.7878   8.8538   8.9084   8.9840   9.0279
     9.0646   9.1111   9.1499   9.2588   9.3018   9.4067   9.5629   9.6567
     9.7081   9.7829   9.9048  10.0447  10.0878  10.1170  10.1516  10.2668
    10.3448  10.3610  10.4047  10.4236  10.4688  10.5209  10.5460  10.6118
    10.6316  10.6539  10.6669  10.7714  10.8111  10.8770  10.9391  10.9416
    11.0088  11.0254  11.0407  11.0629  11.1375  11.1423  11.1849  11.2035
    11.2628  11.2825  11.2892  11.3272  11.3478  11.3827  11.4149  11.4593
    11.5367  11.5705  11.5979  11.6316  11.6749  11.7108  11.7351  11.8730
    11.9599  12.0298  12.0555  12.0912  12.1266  12.2197  12.2795  12.3611
    12.4445  12.4896  12.5083  12.5887  12.6136  12.6842  12.7547  13.0117
    14.7836  14.8859  14.9895  15.0788  15.2736  15.2875  15.3746  15.4086
    15.6640  15.7391  15.7891  15.8463  15.8801  15.9989  16.1536  16.1732
    16.2507  16.3539  16.3696  16.4015  16.4746  16.5827  16.6457  16.7616
    16.8609  16.8759  16.9415  16.9572  17.0222  17.0868  17.1351  17.1829
    17.2073  17.2539  17.2945  17.3131  17.3482  17.4591  17.4760  17.5101
    17.5369  17.5830  17.6006  17.6581  17.7392  17.7766  17.8199  17.8679
    17.8819  17.9178  17.9271  17.9637  17.9803  18.0145

          k =-0.5000 0.5000 0.0000 ( 30888 PWs)   bands (ev):

   -42.2163 -42.2003 -42.1106 -42.1092 -41.9962 -41.9568 -41.9404 -41.9278
   -41.9130 -41.8850 -41.8733 -41.8716 -41.8538 -41.8440 -41.8368 -41.8323
   -41.8193 -41.8129 -41.8002 -41.7852 -18.6768 -18.6464 -18.6234 -18.6085
   -18.6024 -18.5817 -18.5618 -18.5542 -18.5384 -18.5271 -18.5107 -18.4982
   -18.4833 -18.4797 -18.4721 -18.4618 -18.4531 -18.4307 -18.4213 -18.4137
   -18.4068 -18.3979 -18.3653 -18.3521 -18.3423 -18.3309 -18.3268 -18.3088
   -18.2872 -18.2592 -18.2521 -18.2364 -18.2247 -18.2071 -18.1900 -18.1824
   -18.1782 -18.1713 -18.1543 -18.1516 -18.1426 -18.1263 -18.1208 -18.1143
   -18.0962 -18.0931 -18.0909 -18.0755 -18.0688 -18.0632 -18.0564 -18.0504
   -18.0387 -18.0374 -18.0244 -18.0218 -18.0166 -18.0022 -18.0008 -17.9793
    -1.8323  -1.5181  -1.4921  -1.1470  -0.5964  -0.5061  -0.3819  -0.3422
    -0.3354  -0.2969  -0.0990  -0.0531  -0.0270  -0.0081   0.0350   0.0763
     0.1298   0.1730   0.1819   0.2819   0.3076   0.4660   0.5129   0.5390
     0.5649   0.6085   0.6303   0.6536   0.7021   0.7761   0.8139   0.8654
     6.6480   7.0081   7.0795   7.3197   7.5164   7.8033   7.8447   7.9586
     8.0775   8.1316   8.1613   8.2207   8.2914   8.3488   8.4511   8.4836
     8.5651   8.6039   8.6390   8.7360   8.7466   8.8343   8.8912   8.9662
     8.9939   9.0136   9.0967   9.3051   9.4593   9.5616   9.6411   9.6492
     9.8273   9.8750   9.9789  10.0373  10.0701  10.1459  10.2267  10.2627
    10.3359  10.3793  10.4267  10.4647  10.5049  10.5119  10.5604  10.5821
    10.6572  10.7355  10.7487  10.7853  10.8255  10.8611  10.9028  10.9558
    11.0041  11.0106  11.0485  11.0925  11.1106  11.1607  11.1666  11.2007
    11.2090  11.2543  11.3084  11.3559  11.3753  11.3842  11.4445  11.4996
    11.5267  11.5527  11.5689  11.6099  11.6354  11.7062  11.7348  11.8090
    11.8783  11.9640  12.0496  12.1433  12.1942  12.2099  12.3343  12.4021
    12.4249  12.4330  12.4672  12.4789  12.5085  12.6671  12.7503  12.9738
    14.7693  14.8302  15.0812  15.1772  15.2079  15.2321  15.4192  15.5464
    15.5556  15.7058  15.7865  15.8101  15.8468  16.0329  16.1028  16.1894
    16.2485  16.3047  16.3198  16.5032  16.5956  16.6326  16.6884  16.8100
    16.8629  16.9300  16.9910  17.0493  17.0685  17.0855  17.1783  17.2203
    17.2395  17.2958  17.3267  17.3395  17.3824  17.4460  17.4772  17.4853
    17.5536  17.5558  17.5992  17.6235  17.6650  17.6751  17.6991  17.7116
    17.7705  17.8763  17.9071  17.9124  17.9606  18.0143

     the Fermi energy is    15.7200 ev

!    total energy              =   -5057.70123602 Ry
     total all-electron energy =    -43491.434341 Ry
     estimated scf accuracy    <       0.00000055 Ry
     smearing contrib. (-TS)   =      -0.00515806 Ry
     internal energy E=F+TS    =   -5057.69607795 Ry

     The total energy is F=E-TS. E is the sum of the following terms:
     one-electron contribution =    -900.49230290 Ry
     hartree contribution      =     731.95540620 Ry
     xc contribution           =    -592.62833396 Ry
     ewald contribution        =   -2318.86610766 Ry
     one-center paw contrib.   =   -1977.66473963 Ry

     convergence has been achieved in  12 iterations

     Forces acting on atoms (cartesian axes, Ry/au):

     atom    1 type  1   force =    -0.00336492   -0.00661256   -0.00768294
     atom    2 type  2   force =    -0.03868926   -0.00510254   -0.03418033
     atom    3 type  3   force =     0.02019790   -0.01797906    0.02593505
     atom    4 type  2   force =     0.00115086   -0.00223476    0.00231430
     atom    5 type  3   force =    -0.00198732    0.01369837    0.00281262
     atom    6 type  2   force =    -0.04187721   -0.00604020   -0.03846450
     atom    7 type  3   force =     0.02821533    0.00881856    0.01030275
     atom    8 type  2   force =    -0.00395877    0.00645112   -0.00344794
     atom    9 type  3   force =    -0.00246980    0.01141136   -0.01618049
     atom   10 type  2   force =    -0.00470195   -0.02937374    0.03361014
     atom   11 type  3   force =     0.01497982   -0.00175304   -0.02401532
     atom   12 type  2   force =    -0.00592630   -0.03987408   -0.00183074
     atom   13 type  1   force =    -0.00832367   -0.00701668   -0.00221816
     atom   14 type  2   force =    -0.01132377   -0.02194578    0.02557609
     atom   15 type  3   force =     0.00736764   -0.00054729   -0.01007188
     atom   16 type  2   force =     0.00490090    0.04220509    0.00439414
     atom   17 type  1   force =    -0.01037573    0.00648050   -0.00368843
     atom   18 type  2   force =    -0.04722696    0.00540658   -0.00210648
     atom   19 type  3   force =     0.02068946    0.01726422    0.01101706
     atom   20 type  2   force =     0.03057181    0.00192261    0.02947118
     atom   21 type  3   force =     0.00800231   -0.01565600   -0.01059022
     atom   22 type  2   force =    -0.03726862    0.00568178   -0.00574542
     atom   23 type  3   force =     0.01813213   -0.00837770    0.00157242
     atom   24 type  2   force =    -0.01922037   -0.00626415   -0.01622096
     atom   25 type  1   force =    -0.00030379    0.00685362    0.00417019
     atom   26 type  2   force =    -0.03498820    0.02785665    0.00232487
     atom   27 type  1   force =     0.00193653   -0.00128999    0.00331341
     atom   28 type  2   force =    -0.02315475    0.03064317   -0.02458648
     atom   29 type  3   force =     0.02444818   -0.00332654    0.01068240
     atom   30 type  2   force =    -0.03067407    0.02051772    0.00379488
     atom   31 type  1   force =    -0.00178336   -0.00043671    0.00461405
     atom   32 type  2   force =     0.02428590   -0.03092953    0.02059349
     atom   33 type  3   force =    -0.01700887    0.01620181    0.00192446
     atom   34 type  2   force =     0.02888670   -0.02002477   -0.00313110
     atom   35 type  3   force =    -0.01892828   -0.00021172    0.00535067
     atom   36 type  2   force =    -0.00103965   -0.00206252   -0.00502136
     atom   37 type  1   force =    -0.00334035   -0.00684322   -0.01137022
     atom   38 type  2   force =     0.03958027   -0.03045467   -0.00339094
     atom   39 type  3   force =    -0.02900496   -0.00098528    0.00236341
     atom   40 type  2   force =     0.00633747    0.00078548    0.00554995
     atom   41 type  3   force =     0.00193986    0.02175469   -0.00111461
     atom   42 type  2   force =     0.00540695   -0.00620889    0.00418337
     atom   43 type  3   force =    -0.01626105    0.01437161   -0.00595521
     atom   44 type  2   force =     0.00376124   -0.00634383    0.00513441
     atom   45 type  1   force =     0.00756311   -0.00777370    0.01058224
     atom   46 type  2   force =     0.01239839   -0.00717454    0.00306833
     atom   47 type  3   force =    -0.00783816   -0.01702620   -0.00263282
     atom   48 type  2   force =    -0.00411821    0.00560698   -0.00443561
     atom   49 type  3   force =    -0.02179591   -0.01401950   -0.01361164
     atom   50 type  2   force =     0.02994030    0.01911197   -0.00093713
     atom   51 type  1   force =     0.00384237   -0.00151730   -0.00005729
     atom   52 type  2   force =    -0.02184280    0.00355525   -0.01439278
     atom   53 type  1   force =     0.00160320    0.00670172   -0.00413737
     atom   54 type  2   force =     0.03969929    0.02989917   -0.00081517
     atom   55 type  1   force =     0.00527658   -0.00169345    0.00119367
     atom   56 type  2   force =     0.02966219   -0.00012605    0.02904271
     atom   57 type  3   force =    -0.01124560   -0.02218631    0.01240802
     atom   58 type  2   force =     0.03228657    0.00587282    0.00096541
     atom   59 type  3   force =    -0.01943796   -0.01482839    0.00207010
     atom   60 type  2   force =     0.02022583    0.00630190    0.01577660
     atom   61 type  1   force =     0.01050213    0.00773862    0.00382536
     atom   62 type  2   force =     0.05023236    0.00835516   -0.00030034
     atom   63 type  3   force =    -0.00695986    0.01852311    0.00010901
     atom   64 type  2   force =    -0.02758305   -0.00575096   -0.02771287

     Total force =     0.236857     Total SCF correction =     0.002397


     Computing stress (Cartesian axis) and pressure

          total   stress  (Ry/bohr**3)                   (kbar)     P=       49.68
   0.00034848  -0.00003154   0.00006203           51.26       -4.64        9.13
  -0.00003154   0.00033984  -0.00003483           -4.64       49.99       -5.12
   0.00006203  -0.00003483   0.00032488            9.13       -5.12       47.79

     Energy error            =      1.4E-01 Ry
     Gradient error          =      5.0E-02 Ry/Bohr

     number of scf cycles    =   2
     number of bfgs steps    =   1

     energy             old  =   -5057.5604429483 Ry
     energy             new  =   -5057.7012360187 Ry

     CASE: energy            _new < energy            _old

     new trust radius        =       0.1049212273 bohr
     new conv_thr            =       0.0000005023 Ry


ATOMIC_POSITIONS (angstrom)
Al           -0.0020989643       -0.0074431824       -0.0066464730
N             2.0170327435       -0.0085668388       -0.0648701058
Ti            0.0377657039        2.0552736753        2.1294700359
N             2.0910053299        2.0830489686        2.0926440947
Ti            2.0827617292        0.0274865956        2.0904144463
N            -0.0772242342       -0.0096029870        2.0200596073
Ti            2.1366582506        2.1066890546        0.0183718694
N            -0.0042823076        2.0979021277       -0.0047346291
Ti           -0.0084573384        0.0270993057        4.1395728818
N             2.0806933214       -0.0599325708        4.2410687224
Ti            0.0229766434        2.0843750787        6.2258421497
N             2.0810201469        2.0189798917        6.2612149617
Al            2.0805704886       -0.0067167070        6.2618131077
N            -0.0156537028       -0.0487981950        6.3204989280
Ti            2.1010708880        2.0873125689        4.1581593877
N             0.0079188665        2.1616596031        4.1829728643
Al           -0.0091676166        4.1837128197       -0.0038393107
N             2.0074376764        4.1859213168       -0.0037245824
Ti            0.0402821502        6.2955247553        2.1100843046
[...]
     6.5440   6.8769   7.0643   7.2945   7.3825   7.5351   7.7656   7.9312
     8.0035   8.0889   8.1075   8.1300   8.2699   8.3305   8.4776   8.5891
     8.6021   8.7308   8.8234   8.8565   8.8755   9.0138   9.0664   9.1159
     9.1782   9.2404   9.2705   9.3202   9.4017   9.4038   9.5111   9.5286
     9.7077   9.7778   9.8441   9.9789  10.0991  10.1312  10.1571  10.2037
    10.2110  10.2159  10.2452  10.3278  10.3966  10.4493  10.5139  10.5737
    10.5936  10.6195  10.6868  10.7684  10.8292  10.8889  10.9553  11.0078
    11.0260  11.1126  11.1239  11.1597  11.1891  11.2197  11.2676  11.2887
    11.3447  11.3632  11.4139  11.4299  11.5013  11.5030  11.5321  11.5643
    11.5896  11.6262  11.6735  11.6899  11.7088  11.7523  11.7979  11.8897
    11.9701  12.0314  12.0773  12.0824  12.1367  12.2108  12.2233  12.3137
    12.3817  12.4184  12.4897  12.5595  13.1057  13.1604  13.1718  13.1915
    13.2254  14.1130  14.4543  14.4781  15.0323  15.1371  15.2424  15.2572
    15.3022  15.5697  15.5877  15.6971  15.8165  15.9168  15.9899  16.2324
    16.3982  16.5403  16.6234  16.6726  16.7151  16.7460  16.7541  16.8004
    16.8376  16.8644  16.9456  16.9755  17.0019  17.0328  17.0758  17.1004
    17.1202  17.1506  17.1724  17.2937  17.3408  17.3499  17.4120  17.4167
    17.4359  17.4956  17.5374  17.5572  17.5927  17.5987  17.6249  17.6404
    17.7044  17.7398  17.7533  17.7683  17.7969  17.8188

          k =-0.5000 0.0000 0.5000 ( 30888 PWs)   bands (ev):

   -42.4286 -42.3741 -42.2211 -42.1847 -42.1553 -42.1021 -42.0691 -42.0577
   -42.0376 -42.0240 -42.0085 -41.9835 -41.9698 -41.9444 -41.9258 -41.9132
   -41.8960 -41.8711 -41.8084 -41.7937 -18.8465 -18.8060 -18.7946 -18.7699
   -18.7535 -18.7460 -18.6860 -18.6549 -18.6491 -18.6380 -18.6238 -18.6067
   -18.5970 -18.5858 -18.5702 -18.5606 -18.5493 -18.5488 -18.5253 -18.5157
   -18.5124 -18.5010 -18.4919 -18.4810 -18.4761 -18.4559 -18.4306 -18.4241
   -18.3897 -18.3859 -18.3636 -18.3486 -18.3269 -18.3115 -18.3046 -18.2951
   -18.2792 -18.2614 -18.2482 -18.2404 -18.2363 -18.2184 -18.2139 -18.2003
   -18.1923 -18.1894 -18.1804 -18.1712 -18.1623 -18.1438 -18.1295 -18.1129
   -18.1040 -18.0971 -18.0887 -18.0705 -18.0435 -18.0336 -17.9925 -17.9883
    -1.9371  -1.6556  -1.4410  -1.3184  -0.7386  -0.5306  -0.3748  -0.3527
    -0.3097  -0.2558  -0.1983  -0.1733  -0.1229  -0.0769  -0.0490   0.0351
     0.0564   0.1381   0.2753   0.3087   0.3368   0.3729   0.4708   0.5116
     0.5614   0.5979   0.6151   0.6588   0.7602   0.8425   0.8532   0.8958
     6.6528   6.9265   7.3181   7.5097   7.6555   7.7668   7.8570   7.9004
     7.9292   8.0531   8.1410   8.1817   8.3115   8.4223   8.4352   8.4890
     8.6105   8.6193   8.6945   8.7275   8.8362   8.8640   8.9885   9.0140
     9.0406   9.0728   9.1132   9.2727   9.3273   9.4338   9.5108   9.5663
     9.6880   9.7638   9.9014  10.0328  10.0647  10.0997  10.1231  10.2804
    10.3130  10.3222  10.3738  10.4250  10.4441  10.4787  10.4902  10.5777
    10.5940  10.6086  10.6557  10.7251  10.7372  10.8435  10.9143  10.9641
    10.9875  10.9930  11.0379  11.0730  11.1750  11.1898  11.2377  11.2470
    11.2646  11.3360  11.3417  11.3689  11.3835  11.4406  11.4691  11.5197
    11.5840  11.6241  11.6364  11.6692  11.7356  11.7960  11.8012  11.9763
    12.0280  12.0689  12.0955  12.1437  12.1761  12.2690  12.3421  12.3886
    12.4147  12.4467  12.5852  12.6027  12.6565  12.7077  12.7958  13.0221
    14.4589  14.6602  14.7456  14.8841  15.0333  15.0973  15.1245  15.2263
    15.5137  15.5715  15.6820  15.7357  15.7904  15.9027  15.9697  16.0462
    16.0969  16.1884  16.2147  16.3145  16.3839  16.4324  16.5412  16.6687
    16.7612  16.7849  16.8239  16.8358  16.9405  16.9794  17.0230  17.0649
    17.1148  17.1527  17.1618  17.1948  17.2463  17.3325  17.3485  17.3872
    17.4256  17.4621  17.5399  17.5815  17.6839  17.7297  17.7591  17.7929
    17.8088  17.8307  17.8563  17.8842  17.9210  17.9360

          k =-0.5000 0.5000 0.0000 ( 30888 PWs)   bands (ev):

   -42.4286 -42.3741 -42.2211 -42.1847 -42.1551 -42.1021 -42.0706 -42.0569
   -42.0376 -42.0234 -42.0080 -41.9826 -41.9704 -41.9434 -41.9279 -41.9140
   -41.8948 -41.8711 -41.8084 -41.7937 -18.8402 -18.8008 -18.7928 -18.7635
   -18.7459 -18.7435 -18.6963 -18.6684 -18.6602 -18.6517 -18.6314 -18.6187
   -18.5899 -18.5862 -18.5853 -18.5579 -18.5450 -18.5408 -18.5315 -18.5198
   -18.5091 -18.5070 -18.4726 -18.4688 -18.4681 -18.4438 -18.4358 -18.4209
   -18.4046 -18.3600 -18.3578 -18.3448 -18.3254 -18.3225 -18.3007 -18.2901
   -18.2742 -18.2718 -18.2558 -18.2475 -18.2460 -18.2245 -18.2215 -18.2020
   -18.1871 -18.1759 -18.1698 -18.1627 -18.1588 -18.1516 -18.1364 -18.1183
   -18.1025 -18.0991 -18.0839 -18.0661 -18.0524 -18.0346 -17.9969 -17.9839
    -1.9557  -1.5929  -1.5488  -1.1773  -0.6978  -0.5952  -0.4728  -0.3951
    -0.3297  -0.3043  -0.1988  -0.1401  -0.1302  -0.0752  -0.0074   0.0658
     0.1259   0.1792   0.2096   0.2865   0.3411   0.3538   0.4313   0.5599
     0.5725   0.6186   0.6411   0.6984   0.7347   0.7714   0.8710   0.9205
     6.7314   7.0720   7.1458   7.3539   7.5664   7.8137   7.8819   7.9576
     8.1214   8.1239   8.1735   8.2243   8.2520   8.3397   8.4177   8.4821
     8.5247   8.5677   8.6125   8.6829   8.7372   8.8313   8.9042   8.9594
     8.9860   8.9996   9.0669   9.2969   9.4358   9.5223   9.6019   9.6229
     9.8010   9.8613   9.9618   9.9910  10.0197  10.1279  10.1847  10.2691
    10.3040  10.3413  10.4075  10.4366  10.4948  10.5203  10.5359  10.6011
    10.6283  10.6890  10.6996  10.7231  10.7833  10.8053  10.8893  10.9179
    10.9692  11.0289  11.0558  11.0806  11.1224  11.1556  11.1827  11.2538
    11.2951  11.3110  11.3732  11.3925  11.4403  11.4887  11.5084  11.5268
    11.5645  11.6023  11.6354  11.6694  11.7034  11.7821  11.8068  11.8599
    11.9403  11.9980  12.0719  12.1621  12.2478  12.2810  12.3213  12.3798
    12.4191  12.4634  12.5038  12.5071  12.5726  12.6841  12.7653  13.0020
    14.4437  14.6007  14.7797  14.9262  15.0252  15.2004  15.2639  15.3494
    15.3567  15.4678  15.6380  15.7059  15.7506  15.9010  15.9786  16.0318
    16.0980  16.1446  16.1828  16.3358  16.4638  16.5386  16.6318  16.7292
    16.7996  16.8303  16.8768  16.9014  16.9441  16.9835  17.0277  17.0802
    17.1612  17.2055  17.2170  17.2594  17.2828  17.3229  17.3635  17.4071
    17.4209  17.4474  17.4914  17.5408  17.5847  17.6064  17.6508  17.6730
    17.7625  17.8080  17.8569  17.8689  17.9221  17.9322

     the Fermi energy is    15.5568 ev

!    total energy              =   -5057.77744526 Ry
     total all-electron energy =    -43491.510550 Ry
     estimated scf accuracy    <       0.00000003 Ry
     smearing contrib. (-TS)   =      -0.00344371 Ry
     internal energy E=F+TS    =   -5057.77400155 Ry

     The total energy is F=E-TS. E is the sum of the following terms:
     one-electron contribution =    -881.13715423 Ry
     hartree contribution      =     721.51300281 Ry
     xc contribution           =    -592.61858980 Ry
     ewald contribution        =   -2327.82534061 Ry
     one-center paw contrib.   =   -1977.70591973 Ry

     convergence has been achieved in   9 iterations

     Forces acting on atoms (cartesian axes, Ry/au):

     atom    1 type  1   force =     0.00052760   -0.00040968    0.00040824
     atom    2 type  2   force =    -0.00085154   -0.00027814   -0.00040258
     atom    3 type  3   force =    -0.00012892   -0.00034026    0.00083375
     atom    4 type  2   force =    -0.00007337   -0.00008727    0.00022045
     atom    5 type  3   force =     0.00039644    0.00096422   -0.00038417
     atom    6 type  2   force =    -0.00021915    0.00076401   -0.00079672
     atom    7 type  3   force =     0.00002621    0.00045661    0.00082010
     atom    8 type  2   force =    -0.00103073    0.00011369   -0.00033713
     atom    9 type  3   force =    -0.00066308    0.00078815   -0.00035785
     atom   10 type  2   force =     0.00005914   -0.00077533   -0.00006395
     atom   11 type  3   force =    -0.00101941    0.00014686   -0.00178681
     atom   12 type  2   force =     0.00042698    0.00060811    0.00050849
     atom   13 type  1   force =    -0.00064470    0.00011864   -0.00027255
     atom   14 type  2   force =     0.00107010   -0.00054318    0.00082609
     atom   15 type  3   force =    -0.00063102    0.00032430   -0.00047536
     atom   16 type  2   force =    -0.00017372    0.00053824   -0.00055959
     atom   17 type  1   force =     0.00124979    0.00059247    0.00096219
     atom   18 type  2   force =     0.00054861   -0.00070902    0.00020741
     atom   19 type  3   force =     0.00103462    0.00143550   -0.00009420
     atom   20 type  2   force =     0.00167483   -0.00054601    0.00146916
     atom   21 type  3   force =     0.00044828   -0.00086477   -0.00011298
     atom   22 type  2   force =    -0.00033528    0.00053571    0.00047257
     atom   23 type  3   force =     0.00046228   -0.00170500    0.00018621
     atom   24 type  2   force =    -0.00129672    0.00041698   -0.00089306
     atom   25 type  1   force =     0.00098867    0.00017569   -0.00103406
     atom   26 type  2   force =     0.00011878    0.00154015   -0.00003790
     atom   27 type  1   force =     0.00068406    0.00031695   -0.00055169
     atom   28 type  2   force =    -0.00004907   -0.00032890   -0.00076142
     atom   29 type  3   force =     0.00067616   -0.00121506    0.00062271
     atom   30 type  2   force =    -0.00025272    0.00092881   -0.00057587
     atom   31 type  1   force =     0.00069393    0.00006978    0.00061447
     atom   32 type  2   force =     0.00114469   -0.00020243    0.00027270
     atom   33 type  3   force =    -0.00159370    0.00031948   -0.00003246
     atom   34 type  2   force =     0.00064452   -0.00119291   -0.00006259
     atom   35 type  3   force =    -0.00007809   -0.00039903    0.00045316
     atom   36 type  2   force =     0.00012589    0.00057985   -0.00096921
     atom   37 type  1   force =    -0.00024115    0.00036228   -0.00075698
     atom   38 type  2   force =    -0.00035123   -0.00118331    0.00003523
     atom   39 type  3   force =    -0.00165613    0.00099037   -0.00023911
     atom   40 type  2   force =    -0.00131580   -0.00053227   -0.00000691
     atom   41 type  3   force =     0.00018292    0.00047276    0.00043124
     atom   42 type  2   force =    -0.00037602    0.00072499   -0.00067408
     atom   43 type  3   force =     0.00093723   -0.00132822   -0.00029756
     atom   44 type  2   force =     0.00039674    0.00022209    0.00032488
     atom   45 type  1   force =    -0.00157306    0.00075119   -0.00072025
     atom   46 type  2   force =    -0.00100405   -0.00058251   -0.00007515
     atom   47 type  3   force =     0.00029376   -0.00080409   -0.00071106
     atom   48 type  2   force =    -0.00054149   -0.00018317   -0.00003429
     atom   49 type  3   force =    -0.00050218   -0.00115704    0.00046530
     atom   50 type  2   force =     0.00160370    0.00090711    0.00033933
     atom   51 type  1   force =     0.00000655    0.00034341    0.00008051
     atom   52 type  2   force =    -0.00089132   -0.00031615   -0.00116578
     atom   53 type  1   force =     0.00003958    0.00066261    0.00108327
     atom   54 type  2   force =     0.00047830    0.00112497    0.00040737
     atom   55 type  1   force =    -0.00129978   -0.00037686   -0.00003673
     atom   56 type  2   force =    -0.00001664   -0.00053972    0.00146336
     atom   57 type  3   force =     0.00101577   -0.00123161    0.00023976
     atom   58 type  2   force =     0.00165127    0.00037028   -0.00014061
     atom   59 type  3   force =     0.00037032   -0.00032600    0.00087381
     atom   60 type  2   force =     0.00108466   -0.00132411    0.00124968
     atom   61 type  1   force =    -0.00152986   -0.00013741   -0.00079127
     atom   62 type  2   force =    -0.00164832   -0.00133564    0.00054161
     atom   63 type  3   force =     0.00068596    0.00213977    0.00021425
     atom   64 type  2   force =     0.00023993    0.00014909   -0.00041537

     Total force =     0.010674     Total SCF correction =     0.000756


     Computing stress (Cartesian axis) and pressure

          total   stress  (Ry/bohr**3)                   (kbar)     P=       45.51
   0.00033416  -0.00003070   0.00007094           49.16       -4.52       10.44
  -0.00003070   0.00029882  -0.00003357           -4.52       43.96       -4.94
   0.00007094  -0.00003357   0.00029513           10.44       -4.94       43.42

     Energy error            =      3.4E-04 Ry
     Gradient error          =      2.1E-03 Ry/Bohr

     number of scf cycles    =   8
     number of bfgs steps    =   7

     energy             old  =   -5057.7771073420 Ry
     energy             new  =   -5057.7774452612 Ry

     CASE: energy            _new < energy            _old

     new trust radius        =       0.0063888111 bohr

     The maximum number of steps has been reached.

     End of BFGS Geometry Optimization

ATOMIC_POSITIONS (angstrom)
Al           -0.0121624379       -0.0175649659       -0.0355761151
N             1.9931803926       -0.0185479177       -0.0744627165
Ti            0.0193379476        2.0416941800        2.1337788642
N             2.0831081646        2.0853258362        2.0930432777
Ti            2.0775617942        0.0165629221        2.0938714159
N            -0.0926952935       -0.0117150706        1.9831170998
Ti            2.1180995407        2.1162298074        0.0153044102
N            -0.0146039495        2.1081488984       -0.0117236452
Ti           -0.0064786799        0.0357401730        4.1180438585
N             2.0759974596       -0.0632206296        4.2548852963
Ti            0.0326246158        2.0896127117        6.2197539896
N             2.0767813356        1.9806307608        6.2593318925
Al            2.0409910944       -0.0329068214        6.2610382343
N            -0.0384495533       -0.0537216036        6.3104626381
Ti            2.0930394587        2.0946182204        4.1659566265
N             0.0099725945        2.1974509628        4.1836073938
Al           -0.0421693928        4.1910984849       -0.0009631199
N             1.9655002931        4.1847664497       -0.0039429759
Ti            0.0673331204        6.3166004108        2.1172570400
N             2.1675339478        6.2704768191        2.1519076896
Ti            2.1021317134        4.1541547602        2.0579125963
N            -0.0769352006        4.1960605523        2.0747903807
Ti            2.1313943763        6.2300582786        0.0097089925
N            -0.0424853257        6.2481564555       -0.0340391396
Al           -0.0104172540        4.2149027711        4.1837778476
N             2.0118619880        4.2374179548        4.1859374229
Al            0.0031179416        6.2595316779        6.2771109977
N             2.0287858014        6.3237192054        6.2196573609
Ti            2.1549102955        4.1626035163        6.2939606684
N            -0.0611652986        4.2287123129        6.2756232018
Al            2.0862324772        6.2594804360        4.1930800671
N             0.0455154399        6.2134001456        4.2233486159
Ti            4.1157918418        0.0343360486        0.0051435452
N             6.3191634032       -0.0480070028       -0.0112933666
Ti            4.1493447446        2.0943383914        2.1065886194
N             6.2556981048        2.0785246311        2.0748671747
Al            6.2572272260       -0.0333130144        2.0222314102
N             4.2665898100       -0.0630086932        2.0780256058
Ti            6.2235591342        2.0933242284        0.0013660056
N             4.1829561982        2.0842137998        0.0104936616
Ti            4.1794519972        0.0521298793        4.1733402367
N             6.2751022507       -0.0151386816        4.1891201673
Ti            4.1428598012        2.1241012760        6.2442081723
N             6.2721130379        2.0587626398        6.2733686056
Al            6.2827496507       -0.0323855266        6.3126294954
N             4.2157403799       -0.0266815503        6.2778389216
Ti            6.2620490875        2.0448584867        4.1725350649
N             4.1716930767        2.0932007605        4.1683139383
Ti            4.1172458631        4.1440316617       -0.0247764778
N             6.3204029631        4.2212641322       -0.0046108554
Al            4.1991677047        6.2538089720        2.0965770126
N             6.2319515818        6.2768815836        2.0598063454
Al            6.2851448766        4.2111893939        2.0811722517
N             4.2751843278        4.2390016160        2.0873189424
Al            6.2820692640        6.2567019017        0.0031940156
N             4.2505784214        6.2656371514        0.0596377139
Ti            4.1631419671        4.1182738234        4.2024977365
N             6.3313219849        4.1998501640        4.1794165844
Ti            4.1265911199        6.2159846581        6.2744698700
N             6.3108897138        6.2812783246        6.3005652147
Al            6.3168208276        4.2118375330        6.2693135097
N             4.3209935352        4.1959799420        6.2633338911
Ti            6.2463098899        6.3176570819        4.1851667767
N             4.1226468075        6.2518886925        4.1325800437



     Writing config-only to output data dir ../output/relax_sqs_all_x/tmp_x0375/TiAlN_x0375_relax.save/
     NEW-OLD atomic charge density approx. for the potential

     Check: negative core charge=   -0.000025
 
     init_run     :      3.32s CPU      3.48s WALL (       1 calls)
     electrons    :    782.70s CPU    798.11s WALL (       8 calls)
     update_pot   :      2.14s CPU      2.17s WALL (       8 calls)
     forces       :     14.81s CPU     15.19s WALL (       8 calls)
     stress       :    147.13s CPU    148.44s WALL (       8 calls)

     Called by init_run:
     wfcinit      :      2.88s CPU      2.97s WALL (       1 calls)
     potinit      :      0.21s CPU      0.22s WALL (       1 calls)
     hinit0       :      0.12s CPU      0.13s WALL (       1 calls)

     Called by electrons:
     c_bands      :    685.46s CPU    696.87s WALL (      90 calls)
     sum_band     :     69.89s CPU     72.05s WALL (      90 calls)
     v_of_rho     :      3.46s CPU      3.53s WALL (      99 calls)
     newd         :      6.02s CPU      7.15s WALL (      99 calls)
     PAW_pot      :     17.28s CPU     17.50s WALL (     107 calls)
     mix_rho      :      3.94s CPU      4.26s WALL (      90 calls)

     Called by c_bands:
     init_us_2    :      7.89s CPU      7.98s WALL (     410 calls)
     init_us_2:cp :      7.89s CPU      7.97s WALL (     410 calls)
     cegterg      :    610.24s CPU    621.17s WALL (     180 calls)

     Called by *egterg:
     cdiaghg      :     68.73s CPU     69.68s WALL (    1018 calls)
     h_psi        :    283.64s CPU    287.92s WALL (    1034 calls)
     s_psi        :     73.35s CPU     73.90s WALL (    1034 calls)
     g_psi        :      1.39s CPU      1.40s WALL (     852 calls)

     Called by h_psi:
     h_psi:calbec :     72.86s CPU     73.42s WALL (    1034 calls)
     vloc_psi     :    134.60s CPU    136.86s WALL (    1034 calls)
     add_vuspsi   :     73.87s CPU     74.57s WALL (    1034 calls)

     General routines
     calbec       :    115.01s CPU    115.92s WALL (    1310 calls)
     fft          :      1.92s CPU      1.96s WALL (    1298 calls)
     ffts         :      1.98s CPU      2.02s WALL (    1806 calls)
     fftw         :    136.98s CPU    139.27s WALL (  290296 calls)
     davcio       :      0.00s CPU      0.18s WALL (       2 calls)
 
     Parallel routines
 
     PWSCF        :  15m55.52s CPU  16m13.84s WALL

 
   This run was terminated on:   3:43:34  11May2026            

=------------------------------------------------------------------------------=
   JOB DONE.
=------------------------------------------------------------------------------=
