
     Program PWSCF v.7.1 starts on 11May2026 at  3:27:20 

     This program is part of the open-source Quantum ESPRESSO suite
     for quantum simulation of materials; please cite
         "P. Giannozzi et al., J. Phys.:Condens. Matter 21 395502 (2009);
         "P. Giannozzi et al., J. Phys.:Condens. Matter 29 465901 (2017);
         "P. Giannozzi et al., J. Chem. Phys. 152 154105 (2020);
          URL http://www.quantum-espresso.org", 
     in publications or presentations arising from this work. More details at
     http://www.quantum-espresso.org/quote

     Parallel version (MPI & OpenMP), running on      32 processor cores
     Number of MPI processes:                32
     Threads/MPI process:                     1

     MPI processes distributed on     1 nodes
     381298 MiB available memory on the printing compute node when the environment starts
 
     Reading input from relax_sqs_x05.in

     Current dimensions of program PWSCF are:
     Max number of different atomic species (ntypx) = 10
     Max number of k-points (npk) = 150000
     Max angular momentum in pseudopotentials (lmaxx) =  4
     file Al.pbe-n-kjpaw_psl.1.0.0.UPF: wavefunction(s)  3S 3P renormalized
     file N.pbe-n-kjpaw_psl.1.0.0.UPF: wavefunction(s)  2S renormalized
     file Ti.pbe-spn-kjpaw_psl.1.0.0.UPF: wavefunction(s)  3S 3P 3D renormalized
 
     K-points division:     npool     =       4
     R & G space division:  proc/nbgrp/npool/nimage =       8
     Subspace diagonalization in iterative solution of the eigenvalue problem:
     one sub-group per band group will be used
     scalapack distributed-memory algorithm (size of sub-group:  2*  2 procs)

 
     Parallelization info
     --------------------
     sticks:   dense  smooth     PW     G-vecs:    dense   smooth      PW
     Min         588     588    161                30428    30428    4336
     Max         589     589    162                30433    30433    4339
     Sum        4709    4709   1289               243441   243441   34697
 
     Using Slab Decomposition
 


     bravais-lattice index     =            0
     lattice parameter (alat)  =      15.7036  a.u.
     unit-cell volume          =    3872.5735 (a.u.)^3
     number of atoms/cell      =           64
     number of atomic types    =            3
     number of electrons       =       400.00
     number of Kohn-Sham states=          240
     kinetic-energy cutoff     =      60.0000  Ry
     charge density cutoff     =     240.0000  Ry
     scf convergence threshold =      1.0E-06
     mixing beta               =       0.2000
     number of iterations used =            8  local-TF  mixing
     energy convergence thresh.=      1.0E-04
     force convergence thresh. =      1.0E-03
     Exchange-correlation= SLA  PW   PBX  PBC
                           (   1   4   3   4   0   0   0)
     nstep                     =            8


     celldm(1)=  15.703624  celldm(2)=   0.000000  celldm(3)=   0.000000
     celldm(4)=   0.000000  celldm(5)=   0.000000  celldm(6)=   0.000000

     crystal axes: (cart. coord. in units of alat)
               a(1) = (   1.000000   0.000000   0.000000 )  
               a(2) = (   0.000000   1.000000   0.000000 )  
               a(3) = (   0.000000   0.000000   1.000000 )  

     reciprocal axes: (cart. coord. in units 2 pi/alat)
               b(1) = (  1.000000  0.000000  0.000000 )  
               b(2) = (  0.000000  1.000000  0.000000 )  
               b(3) = (  0.000000  0.000000  1.000000 )  


     PseudoPot. # 1 for Al read from file:
     ../../pseudo/Al.pbe-n-kjpaw_psl.1.0.0.UPF
     MD5 check sum: 502b6b27b9c6270cab5dd1084b96fa6d
     Pseudo is Projector augmented-wave + core cor, Zval =  3.0
     Generated using &quot;atomic&quot; code by A. Dal Corso  v.6.3
     Shape of augmentation charge: PSQ
     Using radial grid of 1135 points,  6 beta functions with: 
                l(1) =   0
                l(2) =   0
                l(3) =   1
                l(4) =   1
                l(5) =   2
                l(6) =   2
     Q(r) pseudized with 0 coefficients 


     PseudoPot. # 2 for N  read from file:
     ../../pseudo/N.pbe-n-kjpaw_psl.1.0.0.UPF
     MD5 check sum: 14c48229446f9f2d411169a3abcbc3fa
     Pseudo is Projector augmented-wave + core cor, Zval =  5.0
     Generated using &quot;atomic&quot; code by A. Dal Corso  v.6.3
     Shape of augmentation charge: PSQ
     Using radial grid of 1085 points,  4 beta functions with: 
                l(1) =   0
                l(2) =   0
                l(3) =   1
                l(4) =   1
     Q(r) pseudized with 0 coefficients 


     PseudoPot. # 3 for Ti read from file:
     ../../pseudo/Ti.pbe-spn-kjpaw_psl.1.0.0.UPF
     MD5 check sum: 01f69b0d8ba4438b2e03ac6ea4af1c0b
     Pseudo is Projector augmented-wave + core cor, Zval = 12.0
     Generated using &quot;atomic&quot; code by A. Dal Corso  v.6.2.2
     Shape of augmentation charge: PSQ
     Using radial grid of 1177 points,  6 beta functions with: 
                l(1) =   0
                l(2) =   0
                l(3) =   1
                l(4) =   1
                l(5) =   2
                l(6) =   2
     Q(r) pseudized with 0 coefficients 


     atomic species   valence    mass     pseudopotential
        Al             3.00    26.98200     Al( 1.00)
        N              5.00    14.00700     N ( 1.00)
        Ti            12.00    47.86700     Ti( 1.00)

     No symmetry found



   Cartesian axes

     site n.     atom                  positions (alat units)
         1           Al  tau(   1) = (   0.0000000   0.0000000   0.0000000  )
         2           N   tau(   2) = (   0.2500000   0.0000000   0.0000000  )
         3           Al  tau(   3) = (   0.0000000   0.2500000   0.2500000  )
         4           N   tau(   4) = (   0.2500000   0.2500000   0.2500000  )
         5           Ti  tau(   5) = (   0.2500000   0.0000000   0.2500000  )
         6           N   tau(   6) = (   0.0000000   0.0000000   0.2500000  )
         7           Ti  tau(   7) = (   0.2500000   0.2500000   0.0000000  )
         8           N   tau(   8) = (   0.0000000   0.2500000   0.0000000  )
         9           Al  tau(   9) = (   0.0000000   0.0000000   0.5000000  )
        10           N   tau(  10) = (   0.2500000   0.0000000   0.5000000  )
        11           Ti  tau(  11) = (   0.0000000   0.2500000   0.7500000  )
        12           N   tau(  12) = (   0.2500000   0.2500000   0.7500000  )
        13           Ti  tau(  13) = (   0.2500000   0.0000000   0.7500000  )
        14           N   tau(  14) = (   0.0000000   0.0000000   0.7500000  )
        15           Al  tau(  15) = (   0.2500000   0.2500000   0.5000000  )
        16           N   tau(  16) = (   0.0000000   0.2500000   0.5000000  )
        17           Al  tau(  17) = (   0.0000000   0.5000000   0.0000000  )
        18           N   tau(  18) = (   0.2500000   0.5000000   0.0000000  )
        19           Al  tau(  19) = (   0.0000000   0.7500000   0.2500000  )
        20           N   tau(  20) = (   0.2500000   0.7500000   0.2500000  )
        21           Al  tau(  21) = (   0.2500000   0.5000000   0.2500000  )
        22           N   tau(  22) = (   0.0000000   0.5000000   0.2500000  )
        23           Ti  tau(  23) = (   0.2500000   0.7500000   0.0000000  )
        24           N   tau(  24) = (   0.0000000   0.7500000   0.0000000  )
        25           Ti  tau(  25) = (   0.0000000   0.5000000   0.5000000  )
        26           N   tau(  26) = (   0.2500000   0.5000000   0.5000000  )
        27           Ti  tau(  27) = (   0.0000000   0.7500000   0.7500000  )
        28           N   tau(  28) = (   0.2500000   0.7500000   0.7500000  )
        29           Ti  tau(  29) = (   0.2500000   0.5000000   0.7500000  )
        30           N   tau(  30) = (   0.0000000   0.5000000   0.7500000  )
        31           Al  tau(  31) = (   0.2500000   0.7500000   0.5000000  )
        32           N   tau(  32) = (   0.0000000   0.7500000   0.5000000  )
        33           Al  tau(  33) = (   0.5000000   0.0000000   0.0000000  )
        34           N   tau(  34) = (   0.7500000   0.0000000   0.0000000  )
        35           Al  tau(  35) = (   0.5000000   0.2500000   0.2500000  )
        36           N   tau(  36) = (   0.7500000   0.2500000   0.2500000  )
        37           Al  tau(  37) = (   0.7500000   0.0000000   0.2500000  )
        38           N   tau(  38) = (   0.5000000   0.0000000   0.2500000  )
        39           Ti  tau(  39) = (   0.7500000   0.2500000   0.0000000  )
        40           N   tau(  40) = (   0.5000000   0.2500000   0.0000000  )
        41           Ti  tau(  41) = (   0.5000000   0.0000000   0.5000000  )
        42           N   tau(  42) = (   0.7500000   0.0000000   0.5000000  )
        43           Ti  tau(  43) = (   0.5000000   0.2500000   0.7500000  )
        44           N   tau(  44) = (   0.7500000   0.2500000   0.7500000  )
        45           Ti  tau(  45) = (   0.7500000   0.0000000   0.7500000  )
        46           N   tau(  46) = (   0.5000000   0.0000000   0.7500000  )
        47           Al  tau(  47) = (   0.7500000   0.2500000   0.5000000  )
        48           N   tau(  48) = (   0.5000000   0.2500000   0.5000000  )
        49           Ti  tau(  49) = (   0.5000000   0.5000000   0.0000000  )
        50           N   tau(  50) = (   0.7500000   0.5000000   0.0000000  )
        51           Al  tau(  51) = (   0.5000000   0.7500000   0.2500000  )
        52           N   tau(  52) = (   0.7500000   0.7500000   0.2500000  )
        53           Al  tau(  53) = (   0.7500000   0.5000000   0.2500000  )
        54           N   tau(  54) = (   0.5000000   0.5000000   0.2500000  )
        55           Al  tau(  55) = (   0.7500000   0.7500000   0.0000000  )
        56           N   tau(  56) = (   0.5000000   0.7500000   0.0000000  )
        57           Ti  tau(  57) = (   0.5000000   0.5000000   0.5000000  )
        58           N   tau(  58) = (   0.7500000   0.5000000   0.5000000  )
        59           Ti  tau(  59) = (   0.5000000   0.7500000   0.7500000  )
        60           N   tau(  60) = (   0.7500000   0.7500000   0.7500000  )
        61           Al  tau(  61) = (   0.7500000   0.5000000   0.7500000  )
        62           N   tau(  62) = (   0.5000000   0.5000000   0.7500000  )
        63           Ti  tau(  63) = (   0.7500000   0.7500000   0.5000000  )
        64           N   tau(  64) = (   0.5000000   0.7500000   0.5000000  )

     number of k points=     8  Gaussian smearing, width (Ry)=  0.0050
                       cart. coord. in units 2pi/alat
        k(    1) = (   0.0000000   0.0000000   0.0000000), wk =   0.2500000
        k(    2) = (   0.0000000   0.0000000  -0.5000000), wk =   0.2500000
        k(    3) = (   0.0000000  -0.5000000  -0.5000000), wk =   0.2500000
        k(    4) = (  -0.5000000  -0.5000000  -0.5000000), wk =   0.2500000
        k(    5) = (  -0.5000000   0.0000000   0.0000000), wk =   0.2500000
        k(    6) = (   0.0000000  -0.5000000   0.0000000), wk =   0.2500000
        k(    7) = (  -0.5000000   0.0000000   0.5000000), wk =   0.2500000
        k(    8) = (  -0.5000000   0.5000000   0.0000000), wk =   0.2500000

     Dense  grid:   243441 G-vectors     FFT dimensions: (  80,  80,  80)

     Estimated max dynamical RAM per process >     201.76 MB

     Estimated total dynamical RAM >       6.13 GB

     Check: negative core charge=   -0.000020

     Initial potential from superposition of free atoms

     starting charge     399.9395, renormalised to     400.0000
     Starting wfcs are  352 randomized atomic wfcs
     Checking if some PAW data can be deallocated... 

     total cpu time spent up to now is        3.4 secs

     Self-consistent Calculation

     iteration #  1     ecut=    60.00 Ry     beta= 0.20
     Davidson diagonalization with overlap
     ethr =  1.00E-02,  avg # of iterations =  2.0

     total cpu time spent up to now is        9.8 secs

     total energy              =   -4482.42651208 Ry
     estimated scf accuracy    <      18.12170086 Ry

     iteration #  2     ecut=    60.00 Ry     beta= 0.20
     Davidson diagonalization with overlap
     ethr =  4.53E-03,  avg # of iterations =  1.0

     total cpu time spent up to now is       14.9 secs

     total energy              =   -4478.05535441 Ry
     estimated scf accuracy    <      10.21613196 Ry

     iteration #  3     ecut=    60.00 Ry     beta= 0.20
     Davidson diagonalization with overlap
     ethr =  2.55E-03,  avg # of iterations =  3.0

     total cpu time spent up to now is       22.0 secs

     total energy              =   -4480.42051715 Ry
     estimated scf accuracy    <       0.61328635 Ry

     iteration #  4     ecut=    60.00 Ry     beta= 0.20
     Davidson diagonalization with overlap
     ethr =  1.53E-04,  avg # of iterations =  7.6

     total cpu time spent up to now is       30.3 secs

     total energy              =   -4480.48507363 Ry
     estimated scf accuracy    <       0.50568393 Ry

     iteration #  5     ecut=    60.00 Ry     beta= 0.20
     Davidson diagonalization with overlap
     ethr =  1.26E-04,  avg # of iterations =  1.0

     total cpu time spent up to now is       35.4 secs

     total energy              =   -4480.39363714 Ry
     estimated scf accuracy    <       0.34805313 Ry

     iteration #  6     ecut=    60.00 Ry     beta= 0.20
     Davidson diagonalization with overlap
     ethr =  8.70E-05,  avg # of iterations =  2.0

     total cpu time spent up to now is       41.3 secs

     total energy              =   -4480.40768199 Ry
     estimated scf accuracy    <       0.04277549 Ry

     iteration #  7     ecut=    60.00 Ry     beta= 0.20
     Davidson diagonalization with overlap
     ethr =  1.07E-05,  avg # of iterations =  8.8

     total cpu time spent up to now is       51.3 secs

     total energy              =   -4480.41201234 Ry
     estimated scf accuracy    <       0.02193465 Ry

     iteration #  8     ecut=    60.00 Ry     beta= 0.20
     Davidson diagonalization with overlap
     ethr =  5.48E-06,  avg # of iterations =  2.1

     total cpu time spent up to now is       57.8 secs

     total energy              =   -4480.41578410 Ry
     estimated scf accuracy    <       0.00949977 Ry

     iteration #  9     ecut=    60.00 Ry     beta= 0.20
     Davidson diagonalization with overlap
     c_bands:  1 eigenvalues not converged
     ethr =  2.37E-06,  avg # of iterations =  5.9

     total cpu time spent up to now is       67.1 secs

     total energy              =   -4480.41163197 Ry
     estimated scf accuracy    <       0.01560795 Ry

     iteration # 10     ecut=    60.00 Ry     beta= 0.20
     Davidson diagonalization with overlap
     ethr =  2.37E-06,  avg # of iterations =  3.4

     total cpu time spent up to now is       74.6 secs

     total energy              =   -4480.41438958 Ry
     estimated scf accuracy    <       0.00105666 Ry

     iteration # 11     ecut=    60.00 Ry     beta= 0.20
     Davidson diagonalization with overlap
     ethr =  2.64E-07,  avg # of iterations =  4.2

     total cpu time spent up to now is       81.3 secs

     total energy              =   -4480.41424893 Ry
     estimated scf accuracy    <       0.00057400 Ry

     iteration # 12     ecut=    60.00 Ry     beta= 0.20
     Davidson diagonalization with overlap
     ethr =  1.43E-07,  avg # of iterations =  2.0

     total cpu time spent up to now is       88.2 secs

     total energy              =   -4480.41433684 Ry
     estimated scf accuracy    <       0.00007143 Ry

     iteration # 13     ecut=    60.00 Ry     beta= 0.20
     Davidson diagonalization with overlap
     ethr =  1.79E-08,  avg # of iterations =  5.0

     total cpu time spent up to now is       96.0 secs

     total energy              =   -4480.41434453 Ry
     estimated scf accuracy    <       0.00002307 Ry

     iteration # 14     ecut=    60.00 Ry     beta= 0.20
     Davidson diagonalization with overlap
     ethr =  5.77E-09,  avg # of iterations =  2.0

     total cpu time spent up to now is      102.9 secs

     total energy              =   -4480.41434668 Ry
     estimated scf accuracy    <       0.00000384 Ry

     iteration # 15     ecut=    60.00 Ry     beta= 0.20
     Davidson diagonalization with overlap
     ethr =  9.59E-10,  avg # of iterations =  4.6

     total cpu time spent up to now is      109.6 secs

     total energy              =   -4480.41434622 Ry
     estimated scf accuracy    <       0.00000141 Ry

     iteration # 16     ecut=    60.00 Ry     beta= 0.20
     Davidson diagonalization with overlap
     ethr =  3.52E-10,  avg # of iterations =  5.5

     total cpu time spent up to now is      117.2 secs

     End of self-consistent calculation

          k = 0.0000 0.0000 0.0000 ( 30551 PWs)   bands (ev):

   -42.6663 -42.4752 -42.4327 -42.3221 -42.3114 -42.2681 -42.2666 -42.2610
   -42.2350 -42.2148 -42.1988 -42.1723 -42.1240 -42.1068 -42.0971 -42.0587
   -19.1330 -19.0649 -18.9961 -18.9642 -18.9213 -18.9127 -18.9055 -18.8694
   -18.8534 -18.8394 -18.8236 -18.8051 -18.7915 -18.7753 -18.7589 -18.7472
   -18.7331 -18.7193 -18.6993 -18.6750 -18.6686 -18.6595 -18.6321 -18.6180
   -18.6074 -18.5991 -18.5914 -18.5676 -18.5640 -18.5495 -18.5449 -18.5363
   -18.5156 -18.4978 -18.4842 -18.4764 -18.4628 -18.4497 -18.4374 -18.4245
   -18.4088 -18.3958 -18.3794 -18.3713 -18.3285 -18.3129 -18.2807 -18.2790
    -3.1281  -1.8908  -1.7908  -1.7162  -1.7045  -1.5397  -1.4988  -0.8419
    -0.8004  -0.7328  -0.6705  -0.6299  -0.5886  -0.5805  -0.5201  -0.4750
    -0.4469  -0.4242  -0.3969  -0.3200  -0.3025  -0.2830  -0.1188  -0.0956
    -0.0078   0.0638   0.0825   0.1233   0.1738   0.1833   0.2470   0.2585
     5.6453   5.6615   5.7259   5.8085   7.0959   7.1524   7.1884   7.3480
     7.3640   7.3918   7.4272   7.4649   7.5170   7.5840   7.5916   8.0028
     8.1194   8.1382   8.1487   8.2217   8.2358   8.2643   8.3372   8.4153
     8.6115   8.6868   8.6997   8.7381   8.7908   8.8120   8.8717   8.9209
     9.0544   9.1300   9.1562   9.2010   9.3634   9.5180   9.5454   9.6136
     9.6262   9.6547   9.6736   9.6957   9.7044   9.7123   9.7731   9.8175
     9.8616   9.9030   9.9588  10.0415  10.0693  10.1878  10.2103  10.2764
    10.3899  10.4200  10.4503  10.4920  10.5275  10.6959  10.7275  10.7867
    10.8083  10.8180  10.9963  11.0712  11.0741  11.1445  11.1796  11.2394
    11.2929  11.3300  11.3624  11.4615  11.4930  11.5076  11.5263  11.5494
    11.7448  11.8093  11.8229  11.8531  11.8760  11.9088  11.9374  11.9919
    12.1114  12.1369  12.1573  12.1952  12.2472  13.2137  13.2521  13.2578
    13.2808  13.6290  13.7264  14.5722  14.6196  14.6578  14.7482  14.8180
    14.9663  15.7941  15.8607  16.0975  16.4463  16.4740  16.6001  16.6127
    16.6622  16.6704  16.7386  16.8042  16.8654  16.8995  16.9678  16.9866
    16.9987  17.0493  17.0804  17.1053  17.1160  17.1449  17.2030  17.2239
    17.2369  17.2721  17.3012  17.3146  17.3414  17.3505  17.3604  17.3772
    17.3953  17.4040  17.4221  17.4442  17.4802  17.4969  17.5392  17.5638

          k = 0.0000 0.0000-0.5000 ( 30334 PWs)   bands (ev):

   -42.6663 -42.4752 -42.4327 -42.3221 -42.3114 -42.2680 -42.2665 -42.2611
   -42.2350 -42.2148 -42.1988 -42.1722 -42.1239 -42.1068 -42.0971 -42.0587
   -19.1327 -19.0645 -18.9861 -18.9749 -18.9231 -18.9124 -18.9054 -18.8705
   -18.8542 -18.8376 -18.8213 -18.7992 -18.7824 -18.7797 -18.7595 -18.7518
   -18.7375 -18.7147 -18.6961 -18.6862 -18.6696 -18.6633 -18.6306 -18.6186
   -18.6084 -18.6002 -18.5906 -18.5673 -18.5654 -18.5453 -18.5438 -18.5307
   -18.5162 -18.4985 -18.4854 -18.4763 -18.4623 -18.4500 -18.4367 -18.4238
   -18.4071 -18.3988 -18.3804 -18.3713 -18.3281 -18.3128 -18.2805 -18.2790
    -2.9120  -2.4112  -1.6608  -1.5467  -1.5443  -1.4765  -1.2211  -1.1180
    -1.0725  -1.0328  -0.8560  -0.7611  -0.7052  -0.5980  -0.4237  -0.4093
    -0.3504  -0.3416  -0.2959  -0.2277  -0.2242  -0.1886  -0.1259  -0.0785
    -0.0392   0.0027   0.1013   0.1323   0.1680   0.2178   0.2602   0.3289
     5.9799   6.0092   6.1461   6.2061   6.5905   6.7355   7.0533   7.1518
     7.1780   7.4039   7.4227   7.5131   7.6506   7.7098   7.7902   7.8331
     7.9457   7.9888   8.0287   8.1035   8.1588   8.2007   8.2651   8.3111
     8.3915   8.4639   8.5186   8.5360   8.6022   8.7406   8.7904   8.8751
     8.9858   9.1103   9.2336   9.3026   9.3952   9.4113   9.5711   9.6212
     9.6606   9.7091   9.7390   9.8166   9.8477   9.8831   9.9005   9.9500
     9.9821  10.0939  10.1603  10.3213  10.3772  10.3829  10.4517  10.4730
    10.5282  10.5537  10.5945  10.6241  10.6511  10.6649  10.6953  10.7120
    10.7787  10.8583  10.9138  11.0101  11.0495  11.0730  11.1304  11.1540
    11.2075  11.2669  11.2836  11.3194  11.3445  11.3984  11.4314  11.4755
    11.5694  11.5997  11.6674  11.7660  11.8419  11.8667  11.9000  11.9433
    11.9953  12.0478  12.1403  12.1683  12.4750  12.4981  12.8828  12.9011
    13.2838  14.4287  14.6091  14.6610  15.1040  15.1942  15.2033  15.3519
    15.4074  15.6079  15.7577  16.0347  16.0423  16.0837  16.2483  16.3303
    16.4771  16.5443  16.6194  16.6446  16.7143  16.7577  16.8218  16.8525
    16.8980  16.9409  16.9574  16.9797  16.9870  17.0409  17.0527  17.0996
    17.1256  17.1633  17.1773  17.2221  17.2667  17.2684  17.2935  17.3462
    17.3909  17.4438  17.4668  17.4978  17.5657  17.6073  17.6557  17.7016

          k = 0.0000-0.5000-0.5000 ( 30432 PWs)   bands (ev):

   -42.6663 -42.4752 -42.4327 -42.3219 -42.3113 -42.2704 -42.2639 -42.2616
   -42.2345 -42.2157 -42.1982 -42.1725 -42.1244 -42.1071 -42.0952 -42.0596
   -19.1327 -19.0642 -18.9791 -18.9629 -18.9367 -18.9095 -18.8946 -18.8658
   -18.8538 -18.8374 -18.8292 -18.7990 -18.7816 -18.7755 -18.7585 -18.7484
   -18.7378 -18.7285 -18.7062 -18.7001 -18.6780 -18.6679 -18.6388 -18.6306
   -18.6219 -18.5946 -18.5860 -18.5752 -18.5586 -18.5507 -18.5388 -18.5274
   -18.5220 -18.4927 -18.4829 -18.4766 -18.4412 -18.4288 -18.4148 -18.4051
   -18.3995 -18.3930 -18.3844 -18.3670 -18.3411 -18.3295 -18.2994 -18.2839
    -2.5548  -2.5216  -2.0189  -2.0024  -1.2674  -1.2478  -1.2278  -1.2192
    -0.8758  -0.8503  -0.8032  -0.7779  -0.6672  -0.5559  -0.5426  -0.4799
    -0.4519  -0.4060  -0.3597  -0.3218  -0.1934  -0.1235  -0.0924  -0.0691
    -0.0023   0.0312   0.0697   0.0795   0.1659   0.1931   0.2739   0.3311
     6.0725   6.2466   6.3762   6.5443   6.6952   6.7558   6.9873   7.0180
     7.0835   7.1251   7.3957   7.4284   7.4995   7.5138   7.5586   7.6476
     7.7123   7.8965   7.9695   8.0800   8.1878   8.2440   8.2896   8.3183
     8.3498   8.4398   8.5225   8.5905   8.6296   8.6993   8.9895   9.0081
     9.1799   9.2188   9.2942   9.4006   9.5186   9.5332   9.6105   9.7389
     9.7716   9.8116   9.8346   9.9205   9.9825  10.0279  10.0377  10.0843
    10.1067  10.1601  10.1902  10.2720  10.2970  10.3886  10.4182  10.4822
    10.4934  10.5317  10.5589  10.6219  10.6729  10.7293  10.7476  10.7653
    10.8070  10.8275  10.8922  10.9001  10.9341  10.9564  11.0104  11.0600
    11.1153  11.1350  11.2317  11.2751  11.3634  11.3989  11.4574  11.4916
    11.5118  11.5194  11.5986  11.6679  11.7016  11.7551  11.8192  11.8485
    11.9384  11.9650  12.1106  12.1318  12.2053  12.2644  12.5048  12.5397
    14.6892  14.8331  14.8430  14.9398  15.0804  15.1464  15.3378  15.4723
    15.5218  15.6184  15.6614  15.7258  15.8135  15.8656  15.9814  16.1349
    16.1891  16.2404  16.3276  16.3469  16.4005  16.5064  16.6079  16.6950
    16.7783  16.8125  16.8315  16.8553  16.9848  17.0274  17.0624  17.1360
    17.1571  17.1680  17.1840  17.2154  17.2461  17.2723  17.2977  17.4073
    17.4206  17.5162  17.5226  17.5746  17.6099  17.7105  17.7381  17.7585

          k =-0.5000-0.5000-0.5000 ( 30592 PWs)   bands (ev):

   -42.6663 -42.4752 -42.4327 -42.3215 -42.3119 -42.2702 -42.2639 -42.2619
   -42.2347 -42.2159 -42.1982 -42.1722 -42.1243 -42.1070 -42.0952 -42.0598
   -19.1327 -19.0640 -18.9774 -18.9612 -18.9244 -18.9177 -18.8933 -18.8696
   -18.8559 -18.8379 -18.8293 -18.8032 -18.7813 -18.7782 -18.7675 -18.7516
   -18.7327 -18.7236 -18.7030 -18.6985 -18.6727 -18.6687 -18.6513 -18.6349
   -18.6209 -18.5837 -18.5795 -18.5637 -18.5510 -18.5442 -18.5369 -18.5252
   -18.5111 -18.4949 -18.4843 -18.4671 -18.4534 -18.4517 -18.4341 -18.4251
   -18.4113 -18.4045 -18.3894 -18.3668 -18.3187 -18.3047 -18.2970 -18.2828
    -2.3114  -2.2578  -2.0526  -2.0293  -1.7580  -1.6946  -1.4926  -1.4359
    -0.6644  -0.6255  -0.6109  -0.5140  -0.4866  -0.4622  -0.4327  -0.3750
    -0.3110  -0.2947  -0.2558  -0.2424  -0.2251  -0.1830  -0.1618  -0.1335
    -0.1017  -0.0560  -0.0123   0.0226   0.1018   0.1300   0.1413   0.2107
     6.3472   6.4354   6.6422   6.6863   6.7021   6.7659   6.8636   6.9130
     6.9454   7.0562   7.1005   7.1655   7.2542   7.4798   7.5827   7.6941
     7.7608   7.7939   7.9495   8.0426   8.0725   8.1389   8.2710   8.6467
     8.7074   8.7798   8.8288   8.8990   8.9904   9.0880   9.0939   9.1635
     9.2104   9.3047   9.3433   9.4176   9.4564   9.4684   9.5611   9.5911
     9.6358   9.6849   9.7192   9.7713   9.7895   9.8014   9.8334   9.8825
     9.9344   9.9810   9.9952  10.0974  10.1529  10.2314  10.3084  10.3458
    10.3914  10.5208  10.5373  10.5519  10.6300  10.6614  10.7089  10.7505
    10.7726  10.8060  10.8359  10.8893  10.9327  10.9424  11.0175  11.0858
    11.1631  11.2064  11.3155  11.3290  11.3667  11.4364  11.4984  11.5449
    11.6025  11.6215  11.7062  11.7431  11.8073  11.8676  11.9299  11.9529
    12.0187  12.1030  12.1317  12.2097  12.2254  12.2924  12.3439  12.4079
    15.0832  15.1087  15.1748  15.2021  15.3096  15.3263  15.3724  15.3937
    15.4067  15.4966  15.5489  15.6074  15.6662  15.7277  15.7732  15.8805
    15.9756  16.0075  16.1913  16.2238  16.2507  16.3299  16.3446  16.4015
    16.4353  16.4657  16.5102  16.6133  16.6409  16.6724  16.7175  17.0521
    17.1696  17.2302  17.2609  17.2886  17.3053  17.3412  17.3648  17.4702
    17.4823  17.5195  17.5457  17.7147  17.7883  17.8680  17.8939  17.8965

          k =-0.5000 0.0000 0.0000 ( 30334 PWs)   bands (ev):

   -42.6663 -42.4752 -42.4327 -42.3215 -42.3120 -42.2681 -42.2662 -42.2612
   -42.2351 -42.2151 -42.1989 -42.1720 -42.1234 -42.1069 -42.0972 -42.0589
   -19.1330 -19.0644 -18.9898 -18.9634 -18.9219 -18.9043 -18.8964 -18.8657
   -18.8533 -18.8337 -18.8195 -18.8174 -18.7896 -18.7807 -18.7665 -18.7535
   -18.7404 -18.7234 -18.7011 -18.6856 -18.6714 -18.6679 -18.6476 -18.6355
   -18.6009 -18.5954 -18.5869 -18.5652 -18.5566 -18.5504 -18.5397 -18.5311
   -18.5185 -18.5072 -18.4958 -18.4622 -18.4549 -18.4341 -18.4140 -18.4041
   -18.3968 -18.3871 -18.3777 -18.3675 -18.3465 -18.3375 -18.2947 -18.2804
    -2.8339  -2.5949  -1.6685  -1.5483  -1.4018  -1.3284  -1.2854  -1.2481
    -1.1111  -1.0642  -0.7616  -0.7054  -0.5108  -0.4784  -0.4485  -0.3915
    -0.3819  -0.2825  -0.2561  -0.2141  -0.1955  -0.1670  -0.1180  -0.0887
    -0.0612  -0.0426  -0.0193   0.0210   0.1041   0.1288   0.2107   0.2667
     6.0390   6.1358   6.1541   6.2248   6.5167   6.6286   6.6626   6.7206
     7.2637   7.3060   7.3848   7.4057   7.5671   7.6328   7.6919   7.7544
     7.9931   8.0686   8.0961   8.1687   8.2916   8.3552   8.4054   8.4637
     8.5352   8.5658   8.6408   8.7013   8.7865   8.8885   8.9039   8.9455
     8.9525   9.0674   9.1377   9.2599   9.2793   9.5148   9.6705   9.7271
     9.8442   9.8623   9.9080   9.9408   9.9942  10.1331  10.1784  10.2257
    10.2339  10.3026  10.3630  10.3700  10.4137  10.4491  10.4889  10.5241
    10.5436  10.5826  10.5892  10.6251  10.6489  10.6740  10.6904  10.7284
    10.7423  10.8310  10.8700  10.8914  10.9343  10.9595  11.0187  11.0364
    11.0790  11.1250  11.1518  11.1761  11.2138  11.2875  11.3218  11.3253
    11.3639  11.4039  11.4715  11.4898  11.6323  11.6929  11.7582  11.8015
    11.8579  11.9257  11.9609  12.0960  12.5356  12.5452  12.7594  12.7695
    13.6672  14.2150  14.6842  14.8510  15.0034  15.2498  15.2624  15.3760
    15.4302  15.6376  15.6959  15.7370  15.7912  15.9885  16.0854  16.1924
    16.3199  16.4607  16.5474  16.6296  16.6934  16.7362  16.7739  16.8385
    16.8875  16.9234  16.9701  17.0643  17.0854  17.0933  17.1376  17.1799
    17.2551  17.2803  17.3017  17.3097  17.3487  17.3676  17.3858  17.4005
    17.4383  17.4438  17.4636  17.4832  17.5374  17.5533  17.5589  17.6520

          k = 0.0000-0.5000 0.0000 ( 30334 PWs)   bands (ev):

   -42.6663 -42.4752 -42.4327 -42.3219 -42.3114 -42.2704 -42.2641 -42.2614
   -42.2345 -42.2157 -42.1982 -42.1725 -42.1244 -42.1070 -42.0952 -42.0596
   -19.1330 -19.0645 -18.9799 -18.9700 -18.9289 -18.9102 -18.8948 -18.8651
   -18.8489 -18.8375 -18.8278 -18.8028 -18.7856 -18.7791 -18.7616 -18.7465
   -18.7363 -18.7271 -18.7021 -18.6981 -18.6803 -18.6619 -18.6384 -18.6293
   -18.6198 -18.6001 -18.5846 -18.5743 -18.5598 -18.5553 -18.5466 -18.5274
   -18.5205 -18.4867 -18.4802 -18.4752 -18.4422 -18.4296 -18.4149 -18.4047
   -18.4003 -18.3915 -18.3859 -18.3665 -18.3417 -18.3294 -18.2996 -18.2842
    -2.7448  -2.7217  -1.5790  -1.4880  -1.4069  -1.3833  -1.2870  -1.2221
    -1.1755  -1.0890  -0.7929  -0.7268  -0.5372  -0.4214  -0.3655  -0.3568
    -0.3367  -0.3025  -0.2523  -0.2376  -0.2137  -0.1715  -0.1295  -0.1038
    -0.0929  -0.0793  -0.0236   0.0488   0.1202   0.1221   0.2079   0.2632
     6.0006   6.0897   6.2508   6.3254   6.3480   6.5670   6.7658   6.7702
     7.2803   7.3521   7.4117   7.4760   7.5439   7.6315   7.7133   7.7657
     7.7738   7.8689   8.0875   8.2691   8.3332   8.3759   8.3778   8.4866
     8.5530   8.5934   8.6610   8.7262   8.7524   8.8256   8.8491   8.9332
     9.0013   9.0723   9.2565   9.3044   9.3302   9.4335   9.7509   9.8080
     9.8370   9.8649   9.9312   9.9694  10.0142  10.0805  10.0981  10.1783
    10.2145  10.2787  10.3177  10.3652  10.3893  10.4344  10.4860  10.5023
    10.5385  10.5502  10.5643  10.5818  10.6168  10.6356  10.6510  10.6929
    10.7836  10.7874  10.8762  10.8900  10.9820  11.0181  11.0298  11.0541
    11.0908  11.0987  11.1229  11.1968  11.2294  11.2644  11.2763  11.3864
    11.4318  11.4735  11.5610  11.5789  11.6380  11.6623  11.7131  11.8026
    11.8100  11.8636  12.0098  12.0824  12.6377  12.6502  12.6554  12.6928
    13.9492  13.9636  14.7690  14.8915  14.9601  14.9730  15.3026  15.4331
    15.4668  15.4995  15.5864  15.8262  15.8814  15.9605  16.0293  16.2417
    16.4953  16.5200  16.5606  16.5855  16.6336  16.7545  16.8014  16.8398
    16.9028  16.9281  16.9704  16.9962  17.1087  17.1266  17.1434  17.1664
    17.2144  17.2967  17.3106  17.3278  17.3437  17.3778  17.3907  17.4127
    17.4269  17.4530  17.4920  17.5336  17.5671  17.5907  17.6043  17.6258

          k =-0.5000 0.0000 0.5000 ( 30432 PWs)   bands (ev):

   -42.6663 -42.4752 -42.4327 -42.3216 -42.3120 -42.2680 -42.2661 -42.2614
   -42.2351 -42.2151 -42.1989 -42.1720 -42.1234 -42.1069 -42.0972 -42.0589
   -19.1327 -19.0639 -18.9788 -18.9743 -18.9171 -18.9072 -18.8962 -18.8682
   -18.8525 -18.8368 -18.8184 -18.8176 -18.7938 -18.7767 -18.7679 -18.7521
   -18.7410 -18.7170 -18.7021 -18.6838 -18.6743 -18.6671 -18.6511 -18.6367
   -18.5981 -18.5960 -18.5874 -18.5693 -18.5550 -18.5500 -18.5395 -18.5330
   -18.5145 -18.5086 -18.4959 -18.4626 -18.4548 -18.4340 -18.4131 -18.4042
   -18.3974 -18.3863 -18.3782 -18.3672 -18.3468 -18.3374 -18.2944 -18.2805
    -2.6358  -2.4031  -2.1263  -1.8514  -1.3759  -1.3288  -1.2158  -1.1472
    -0.9700  -0.9417  -0.7436  -0.7201  -0.6130  -0.5630  -0.5353  -0.4920
    -0.4210  -0.3973  -0.3522  -0.2601  -0.1639  -0.1620  -0.0978  -0.0526
    -0.0293   0.0213   0.0532   0.0858   0.1554   0.2101   0.2567   0.3301
     6.1152   6.2382   6.3080   6.6160   6.7006   6.9202   6.9325   7.0056
     7.0418   7.0890   7.2729   7.4355   7.4683   7.5502   7.6039   7.6714
     7.7291   7.8265   7.8631   7.9541   8.1034   8.1181   8.2770   8.4000
     8.4495   8.5421   8.5854   8.6284   8.7171   8.7483   8.9719   9.1243
     9.1661   9.2163   9.2531   9.4077   9.4805   9.5593   9.6307   9.6822
     9.7372   9.7940   9.8177   9.9105   9.9742  10.0297  10.0520  10.1271
    10.1304  10.1715  10.1909  10.2722  10.3361  10.3449  10.4795  10.5055
    10.5264  10.5434  10.5877  10.6459  10.6636  10.6992  10.7467  10.7880
    10.8014  10.8306  10.8529  10.9008  10.9207  10.9406  11.0006  11.0578
    11.0868  11.0977  11.1860  11.3510  11.3656  11.4225  11.4677  11.5315
    11.5352  11.5767  11.6076  11.6551  11.6604  11.7152  11.7845  11.8551
    11.8808  11.9326  12.0366  12.1349  12.2055  12.2791  12.4167  12.6045
    14.6376  14.7033  14.9415  14.9964  15.0291  15.2630  15.3079  15.3994
    15.5563  15.6844  15.7179  15.7651  15.7887  15.8983  16.0068  16.0846
    16.1277  16.2285  16.3119  16.3620  16.4284  16.4970  16.5554  16.6253
    16.7894  16.8221  16.8479  16.8836  16.9883  17.0518  17.1000  17.1103
    17.1506  17.1691  17.2147  17.2316  17.2509  17.2766  17.3436  17.3743
    17.3920  17.4197  17.4803  17.4980  17.6575  17.6802  17.7078  17.8135

          k =-0.5000 0.5000 0.0000 ( 30432 PWs)   bands (ev):

   -42.6663 -42.4752 -42.4327 -42.3214 -42.3119 -42.2702 -42.2641 -42.2617
   -42.2347 -42.2159 -42.1982 -42.1722 -42.1243 -42.1070 -42.0952 -42.0597
   -19.1330 -19.0643 -18.9813 -18.9659 -18.9229 -18.9135 -18.8938 -18.8675
   -18.8511 -18.8314 -18.8288 -18.8004 -18.7860 -18.7786 -18.7658 -18.7594
   -18.7327 -18.7275 -18.7096 -18.7024 -18.6734 -18.6645 -18.6464 -18.6327
   -18.6182 -18.5867 -18.5763 -18.5623 -18.5510 -18.5439 -18.5331 -18.5239
   -18.5112 -18.4969 -18.4837 -18.4670 -18.4571 -18.4520 -18.4351 -18.4273
   -18.4115 -18.4042 -18.3876 -18.3666 -18.3185 -18.3047 -18.2972 -18.2830
    -2.4787  -2.4427  -2.2205  -2.2074  -1.1888  -1.1013  -1.0375  -1.0246
    -0.9400  -0.9284  -0.8266  -0.7275  -0.5950  -0.5724  -0.5256  -0.4459
    -0.4345  -0.4164  -0.3749  -0.3388  -0.1482  -0.1204  -0.0833  -0.0488
    -0.0146   0.0001   0.0102   0.0437   0.0683   0.1359   0.2047   0.2225
     6.1148   6.2358   6.4755   6.4919   6.5839   6.6720   6.7369   6.8839
     7.0038   7.0644   7.0837   7.4009   7.4748   7.5654   7.7154   7.8057
     7.8118   7.8553   7.9398   8.1064   8.1493   8.2503   8.3238   8.3439
     8.3866   8.4079   8.5988   8.6543   8.8425   8.9841   9.0528   9.2496
     9.2964   9.3859   9.4818   9.5294   9.5913   9.6150   9.6879   9.7252
     9.8652   9.8879   9.9451  10.0040  10.1128  10.1811  10.2102  10.2289
    10.2409  10.2662  10.2927  10.3067  10.3786  10.4346  10.4474  10.5353
    10.5684  10.5964  10.6066  10.6357  10.6762  10.6985  10.7228  10.7606
    10.8027  10.8141  10.8372  10.8499  10.8814  10.9066  10.9279  10.9444
    11.0031  11.0068  11.0572  11.0615  11.0686  11.1655  11.1733  11.2657
    11.3738  11.4363  11.4476  11.5106  11.6233  11.6332  11.6540  11.7993
    11.8938  11.9276  12.1058  12.1168  12.1332  12.2043  12.3761  12.4537
    14.9630  14.9894  15.0410  15.0497  15.2166  15.2496  15.3218  15.3500
    15.3797  15.3974  15.4467  15.5132  15.7753  15.8145  16.0167  16.0884
    16.1063  16.1997  16.2200  16.2478  16.4045  16.4255  16.4616  16.5251
    16.5722  16.6135  16.6629  16.8985  16.9271  16.9562  16.9584  17.2586
    17.3014  17.3185  17.3555  17.3657  17.3866  17.3932  17.4242  17.4488
    17.4843  17.5185  17.5407  17.6206  17.6311  17.7994  17.8287  17.8371

     the Fermi energy is    15.4017 ev

!    total energy              =   -4480.41434594 Ry
     total all-electron energy =    -38603.026931 Ry
     estimated scf accuracy    <       0.00000064 Ry
     smearing contrib. (-TS)   =      -0.00478876 Ry
     internal energy E=F+TS    =   -4480.40955719 Ry

     The total energy is F=E-TS. E is the sum of the following terms:
     one-electron contribution =    -844.65572652 Ry
     hartree contribution      =     686.25676518 Ry
     xc contribution           =    -529.51882808 Ry
     ewald contribution        =   -1937.54383348 Ry
     one-center paw contrib.   =   -1854.94793427 Ry

     convergence has been achieved in  16 iterations

     Forces acting on atoms (cartesian axes, Ry/au):

     atom    1 type  1   force =    -0.00100520   -0.00185429   -0.00127214
     atom    2 type  2   force =    -0.01401819   -0.00239385    0.01126353
     atom    3 type  1   force =    -0.00145715    0.00184913    0.00144912
     atom    4 type  2   force =    -0.00011444    0.05121560    0.07111432
     atom    5 type  3   force =     0.01968092    0.00051443   -0.03093309
     atom    6 type  2   force =    -0.04500425   -0.00000578   -0.00807094
     atom    7 type  3   force =     0.02893348    0.00025218   -0.05258656
     atom    8 type  2   force =    -0.00399569   -0.01224675    0.06863150
     atom    9 type  1   force =    -0.00097379    0.00059094    0.00340226
     atom   10 type  2   force =    -0.06362523    0.00404446   -0.00951378
     atom   11 type  3   force =     0.01645353    0.00191276    0.01490073
     atom   12 type  2   force =    -0.00121164    0.01255727   -0.07182953
     atom   13 type  3   force =     0.02312483   -0.00056336    0.02726602
     atom   14 type  2   force =    -0.00924183    0.00346415    0.01022395
     atom   15 type  1   force =    -0.00004877    0.00060651    0.00240330
     atom   16 type  2   force =     0.00624453   -0.05798794   -0.06614982
     atom   17 type  1   force =     0.00227316    0.00197525   -0.00197573
     atom   18 type  2   force =    -0.06327869    0.00624710    0.06422692
     atom   19 type  1   force =    -0.00335200   -0.00253231   -0.00065931
     atom   20 type  2   force =    -0.00017580   -0.05248659    0.06609075
     atom   21 type  1   force =    -0.00051512   -0.00045170   -0.00052084
     atom   22 type  2   force =    -0.00628456   -0.00094692   -0.05519330
     atom   23 type  3   force =     0.01975515    0.00258301   -0.05121414
     atom   24 type  2   force =    -0.05035510    0.00982889    0.06364801
     atom   25 type  3   force =    -0.00319733    0.02459518    0.06137379
     atom   26 type  2   force =    -0.00888692   -0.00710513   -0.06641501
     atom   27 type  3   force =     0.01497207   -0.00268266   -0.02613997
     atom   28 type  2   force =     0.00015903   -0.01427279   -0.06174096
     atom   29 type  3   force =     0.01692691    0.00116510    0.02299915
     atom   30 type  2   force =    -0.06608322   -0.00252458    0.05517806
     atom   31 type  1   force =     0.00226721   -0.00102910    0.00375141
     atom   32 type  2   force =     0.05799862    0.05817840   -0.06574273
     atom   33 type  1   force =     0.00132195    0.00040603   -0.00542447
     atom   34 type  2   force =     0.01094350   -0.04696422    0.05855357
     atom   35 type  1   force =     0.00117693    0.00194030    0.00031111
     atom   36 type  2   force =    -0.00052400    0.00408658    0.05475655
     atom   37 type  1   force =     0.00030363   -0.00113660    0.00069865
     atom   38 type  2   force =     0.04439945    0.00082229   -0.06397503
     atom   39 type  3   force =    -0.02759951    0.00613915   -0.05843936
     atom   40 type  2   force =     0.00586631   -0.06625865    0.07525389
     atom   41 type  3   force =     0.00833294   -0.02893218    0.06336547
     atom   42 type  2   force =     0.06272021    0.05668763   -0.05661800
     atom   43 type  3   force =    -0.01637054    0.00336118    0.02109739
     atom   44 type  2   force =     0.00221527    0.06132149   -0.05490004
     atom   45 type  3   force =    -0.02228393   -0.00559014   -0.02805434
     atom   46 type  2   force =     0.00914093    0.00250253    0.06332416
     atom   47 type  1   force =     0.00020149   -0.00181621    0.00138107
     atom   48 type  2   force =    -0.00807748   -0.00944436   -0.07767849
     atom   49 type  3   force =    -0.04303719   -0.02351582   -0.06676170
     atom   50 type  2   force =     0.06268215    0.05097185    0.00949760
     atom   51 type  1   force =     0.00267605   -0.00180811    0.00062059
     atom   52 type  2   force =    -0.00048023   -0.00351301   -0.05198117
     atom   53 type  1   force =     0.00112760    0.00107275   -0.00137655
     atom   54 type  2   force =     0.00791629   -0.00008223   -0.00556019
     atom   55 type  1   force =    -0.00047988   -0.00038133   -0.00123134
     atom   56 type  2   force =     0.05135244    0.06493116    0.07118034
     atom   57 type  3   force =     0.00245676    0.03140698    0.07691479
     atom   58 type  2   force =     0.00971386   -0.06238694   -0.00999175
     atom   59 type  3   force =    -0.01553686   -0.00290094   -0.02793385
     atom   60 type  2   force =     0.00035936   -0.06423016    0.04985336
     atom   61 type  1   force =    -0.00166157    0.00143281    0.00107526
     atom   62 type  2   force =     0.06628926   -0.00076957    0.00976525
     atom   63 type  3   force =    -0.02063128    0.00081497    0.04915982
     atom   64 type  2   force =    -0.06047844    0.00933620   -0.07484755

     Total force =     0.477057     Total SCF correction =     0.002184


     Computing stress (Cartesian axis) and pressure

          total   stress  (Ry/bohr**3)                   (kbar)     P=       62.17
   0.00040010   0.00003336  -0.00002719           58.86        4.91       -4.00
   0.00003336   0.00037341  -0.00001301            4.91       54.93       -1.91
  -0.00002719  -0.00001301   0.00049443           -4.00       -1.91       72.73


     BFGS Geometry Optimization
     Energy error            =      0.0E+00 Ry
     Gradient error          =      7.8E-02 Ry/Bohr

     number of scf cycles    =   1
     number of bfgs steps    =   0

     energy             new  =   -4480.4143459418 Ry

     new trust radius        =       0.1091776958 bohr
     new conv_thr            =       0.0000010000 Ry


ATOMIC_POSITIONS (angstrom)
Al           -0.0005319315       -0.0009812487       -0.0006731891
N             2.0700818911       -0.0012667700        0.0059604051
Al           -0.0007710901        2.0784785178        2.0782668417
N             2.0774394414        2.1046021267        2.1151320786
Ti            2.0879146920        0.0002722261        2.0611309153
N            -0.0238152249       -0.0000030589        2.0732290426
Ti            2.0928109384        2.0776334455       -0.0278276095
N            -0.0021144283        2.0710193000        0.0363182238
Al           -0.0005153075        0.0003127129        4.1568003970
N             2.0438309769        0.0021402352        4.1499655239
Ti            0.0087068342        2.0785121909        6.2403851254
N             2.0768588291        2.0841450188        6.1944894520
Ti            2.0897371351       -0.0002981185        6.2469285562
N            -0.0048905633        0.0018331483        6.2379102839
Al            2.0774741926        2.0778209502        4.1562717714
N             0.0033044649        2.0468141023        4.1199950204
Al            0.0012029066        4.1560452574       -0.0010455094
N             2.0440143596        4.1583058207        0.0339874203
Al           -0.0017738013        6.2311599594        2.0771511084
N             2.0774069696        6.2047252904        2.1124737195
Al            2.0772274085        4.1547609690        2.0772243843
N            -0.0033256464        4.1544989114        2.0482929646
Ti            2.0879539767        6.2338668711       -0.0271013565
N            -0.0266467729        6.2377012232        0.0336810740
Ti           -0.0016919529        4.1680152066        4.1874776087
N             2.0727972426        4.1512401265        4.1198546877
Ti            0.0079228798        6.2310803967        6.2186673239
N             2.0775841538        6.2249471629        6.1998280923
Ti            2.0864573370        4.1556165427        6.2446706256
N            -0.0349697342        4.1536640505        6.2616989725
Al            2.0786997579        6.2319554250        4.1569851610
N             0.0306915487        6.2632866821        4.1202104442
Al            4.1556995468        0.0002148607       -0.0028705065
N             6.2382910505       -0.0248523971        0.0309852156
Al            4.1556228053        2.0785267637        2.0776646304
N             6.2322227120        2.0796625229        2.1064759167
Al            6.2326606739       -0.0006014626        2.0778697100
N             4.1784951777        0.0004351357        2.0436458705
Ti            6.2178949658        2.0807486964       -0.0309247759
N             4.1581043196        2.0424374345        0.0398226450
Ti            4.1594096009       -0.0153102490        4.1885315643
N             6.2656901038        0.0299978045        4.1250390441
Ti            4.1463370815        2.0792786590        6.2436642564
N             6.2336722717        2.1099499340        6.2034481488
Ti            6.2207078526       -0.0029581752        6.2176542828
N             4.1598371704        0.0013242826        6.2660097035
Al            6.2326066244        2.0765389022        4.1557308322
N             4.1507255799        2.0725022600        4.1138943109
Ti            4.1322256973        4.1425559640       -0.0353287712
N             6.2656699662        4.1819731394        0.0050259121
Al            4.1564161020        6.2315431907        2.0778284032
N             6.2322458758        6.2306409967        2.0499927509
Al            6.2330966978        4.1555676725        2.0767715615
N             4.1591891215        4.1549564853        2.0745576730
Al            6.2322460570        6.2322982082       -0.0006515958
N             4.1821745416        6.2668600882        0.0376670144
Ti            4.1563000638        4.1716198606        4.1957015529
N             6.2376403537        4.1219862548        4.1497125943
Ti            4.1467782469        6.2309648865        6.2177180434
N             6.2326901674        6.1985108646        6.2588812594
Al            6.2316207344        4.1557582084        6.2330690052
N             4.1900787657        4.1545927632        6.2376675493
Ti            6.2215823987        6.2329312653        4.1810142562
N             4.1229961903        6.2374405052        4.1153923822



     Writing config-only to output data dir ../output/relax_sqs_all_x/tmp_x05/TiAlN_x05_relax.save/
     NEW-OLD atomic charge density approx. for the potential

     Check: negative core charge=   -0.000020

     total cpu time spent up to now is      136.6 secs

     Self-consistent Calculation

     iteration #  1     ecut=    60.00 Ry     beta= 0.20
     Davidson diagonalization with overlap
     c_bands:  2 eigenvalues not converged
     c_bands:  1 eigenvalues not converged
     ethr =  1.00E-06,  avg # of iterations = 13.2

     total cpu time spent up to now is      159.2 secs

     total energy              =   -4480.59966074 Ry
     estimated scf accuracy    <       0.09761504 Ry

     iteration #  2     ecut=    60.00 Ry     beta= 0.20
     Davidson diagonalization with overlap
     ethr =  2.44E-05,  avg # of iterations =  1.1

     total cpu time spent up to now is      164.6 secs

     total energy              =   -4480.58168430 Ry
     estimated scf accuracy    <       0.06299462 Ry

     iteration #  3     ecut=    60.00 Ry     beta= 0.20
     Davidson diagonalization with overlap
     ethr =  1.57E-05,  avg # of iterations =  2.0

     total cpu time spent up to now is      170.5 secs

     total energy              =   -4480.58253461 Ry
     estimated scf accuracy    <       0.01977952 Ry

     iteration #  4     ecut=    60.00 Ry     beta= 0.20
     Davidson diagonalization with overlap
     c_bands:  1 eigenvalues not converged
     ethr =  4.94E-06,  avg # of iterations =  4.2

     total cpu time spent up to now is      177.4 secs

     total energy              =   -4480.58371403 Ry
     estimated scf accuracy    <       0.00472197 Ry

     iteration #  5     ecut=    60.00 Ry     beta= 0.20
     Davidson diagonalization with overlap
     c_bands:  1 eigenvalues not converged
     ethr =  1.18E-06,  avg # of iterations =  8.0

     total cpu time spent up to now is      187.6 secs

     total energy              =   -4480.58356972 Ry
     estimated scf accuracy    <       0.00203579 Ry

     iteration #  6     ecut=    60.00 Ry     beta= 0.20
     Davidson diagonalization with overlap
     ethr =  5.09E-07,  avg # of iterations =  2.0

     total cpu time spent up to now is      193.6 secs

     total energy              =   -4480.58374181 Ry
     estimated scf accuracy    <       0.00041865 Ry

     iteration #  7     ecut=    60.00 Ry     beta= 0.20
     Davidson diagonalization with overlap
     ethr =  1.05E-07,  avg # of iterations =  4.6

     total cpu time spent up to now is      200.6 secs

     total energy              =   -4480.58377853 Ry
     estimated scf accuracy    <       0.00014826 Ry

     iteration #  8     ecut=    60.00 Ry     beta= 0.20
     Davidson diagonalization with overlap
     ethr =  3.71E-08,  avg # of iterations =  5.5

     total cpu time spent up to now is      207.3 secs

     total energy              =   -4480.58377117 Ry
     estimated scf accuracy    <       0.00007571 Ry

     iteration #  9     ecut=    60.00 Ry     beta= 0.20
     Davidson diagonalization with overlap
     ethr =  1.89E-08,  avg # of iterations =  3.2

     total cpu time spent up to now is      214.5 secs

     total energy              =   -4480.58378137 Ry
     estimated scf accuracy    <       0.00001517 Ry

     iteration # 10     ecut=    60.00 Ry     beta= 0.20
     Davidson diagonalization with overlap
     ethr =  3.79E-09,  avg # of iterations =  8.8

     total cpu time spent up to now is      223.5 secs

     total energy              =   -4480.58378227 Ry
     estimated scf accuracy    <       0.00000512 Ry

     iteration # 11     ecut=    60.00 Ry     beta= 0.20
     Davidson diagonalization with overlap
     ethr =  1.28E-09,  avg # of iterations =  2.5

     total cpu time spent up to now is      230.1 secs

     total energy              =   -4480.58378249 Ry
     estimated scf accuracy    <       0.00000129 Ry

     iteration # 12     ecut=    60.00 Ry     beta= 0.20
     Davidson diagonalization with overlap
     ethr =  3.21E-10,  avg # of iterations =  2.9

     total cpu time spent up to now is      236.8 secs

     End of self-consistent calculation

          k = 0.0000 0.0000 0.0000 ( 30551 PWs)   bands (ev):

   -42.8942 -42.6529 -42.5775 -42.4845 -42.4573 -42.4387 -42.4034 -42.3916
   -42.3823 -42.3775 -42.3748 -42.3110 -42.2627 -42.2521 -42.2435 -42.2110
   -19.3230 -19.2473 -19.1909 -19.1282 -19.0738 -19.0566 -19.0403 -19.0275
   -19.0080 -18.9918 -18.9655 -18.9516 -18.9304 -18.9168 -18.9050 -18.8924
   -18.8779 -18.8658 -18.8441 -18.8265 -18.8168 -18.7878 -18.7732 -18.7698
   -18.7594 -18.7475 -18.7346 -18.7211 -18.7083 -18.6998 -18.6782 -18.6653
   -18.6497 -18.6420 -18.6192 -18.6148 -18.6050 -18.5794 -18.5697 -18.5605
   -18.5302 -18.5084 -18.5025 -18.4891 -18.4730 -18.4645 -18.4332 -18.4259
    -3.1242  -1.9055  -1.7955  -1.7433  -1.7133  -1.5976  -1.5456  -0.8372
    -0.7187  -0.7044  -0.7026  -0.6530  -0.6025  -0.5970  -0.5778  -0.5686
    -0.5496  -0.4844  -0.4751  -0.3779  -0.2671  -0.2353  -0.1650  -0.1446
    -0.0419  -0.0312   0.0204   0.0853   0.1484   0.1969   0.2204   0.3275
     5.6782   5.8020   5.8096   5.8556   7.1886   7.2217   7.2505   7.3154
     7.3264   7.3923   7.4725   7.5351   7.5799   7.6952   7.6987   7.9987
     8.0415   8.0834   8.1419   8.1913   8.2470   8.2643   8.3318   8.3837
     8.5736   8.6501   8.6776   8.7083   8.7434   8.7708   8.8335   8.8787
     9.0264   9.0625   9.0928   9.1421   9.2435   9.4903   9.5402   9.5626
     9.5999   9.6161   9.6321   9.6651   9.6743   9.7155   9.7262   9.7771
     9.8327   9.8986   9.9422   9.9818  10.0438  10.1853  10.2008  10.2591
    10.3696  10.4338  10.5128  10.5401  10.5942  10.7705  10.7997  10.8127
    10.8581  10.8862  11.0270  11.1147  11.1497  11.1689  11.2403  11.2766
    11.2937  11.3180  11.3578  11.4818  11.5677  11.5855  11.6127  11.7191
    11.8072  11.8467  11.8752  11.8929  11.8992  11.9471  11.9892  12.0477
    12.0688  12.1105  12.1402  12.1610  12.1985  13.0152  13.1984  13.2067
    13.2216  13.3248  13.4560  14.3456  14.4080  14.4556  14.4706  14.6082
    14.8036  15.5628  15.6202  15.9260  16.2578  16.2906  16.4140  16.4424
    16.4584  16.4901  16.5638  16.6296  16.6868  16.7148  16.8042  16.8332
    16.8417  16.9051  16.9555  16.9608  16.9731  16.9870  17.0449  17.0727
    17.1084  17.1230  17.1711  17.1909  17.1961  17.2104  17.2283  17.2344
    17.2497  17.2865  17.3017  17.3288  17.3834  17.3880  17.4211  17.4341

          k = 0.0000 0.0000-0.5000 ( 30334 PWs)   bands (ev):

   -42.8942 -42.6529 -42.5774 -42.4845 -42.4573 -42.4387 -42.4033 -42.3916
   -42.3821 -42.3775 -42.3749 -42.3110 -42.2626 -42.2520 -42.2435 -42.2110
   -19.3228 -19.2471 -19.1876 -19.1316 -19.0747 -19.0565 -19.0400 -19.0281
   -19.0084 -18.9909 -18.9651 -18.9464 -18.9279 -18.9196 -18.9045 -18.8936
   -18.8795 -18.8675 -18.8413 -18.8293 -18.8173 -18.7903 -18.7733 -18.7693
   -18.7611 -18.7473 -18.7355 -18.7210 -18.7091 -18.6978 -18.6782 -18.6599
   -18.6520 -18.6438 -18.6181 -18.6146 -18.6044 -18.5796 -18.5701 -18.5591
   -18.5298 -18.5094 -18.5033 -18.4892 -18.4726 -18.4644 -18.4332 -18.4259
    -2.8833  -2.4850  -1.6550  -1.5458  -1.5430  -1.4557  -1.3027  -1.1589
    -1.1160  -1.0669  -0.9037  -0.7582  -0.6345  -0.5330  -0.4734  -0.4319
    -0.4215  -0.3987  -0.3755  -0.3606  -0.2878  -0.2071  -0.1803  -0.1161
    -0.0652  -0.0174   0.0182   0.0963   0.2098   0.2389   0.2969   0.3263
     6.0289   6.1548   6.1946   6.3489   6.5243   6.7768   7.1071   7.2220
     7.2417   7.4100   7.4368   7.4894   7.5490   7.7747   7.8497   7.8786
     7.9950   8.0118   8.0434   8.1146   8.1439   8.2107   8.2536   8.3061
     8.3534   8.4651   8.4713   8.5467   8.5777   8.6936   8.7148   8.7973
     8.9051   9.0476   9.1932   9.3105   9.4235   9.4578   9.5692   9.5774
     9.6575   9.6864   9.7111   9.7370   9.7768   9.8224   9.8504   9.9243
     9.9425  10.1069  10.1366  10.2597  10.3067  10.3637  10.4641  10.4971
    10.5453  10.5635  10.6444  10.6690  10.6751  10.7044  10.7094  10.7385
    10.7900  10.8752  10.9639  10.9921  11.0596  11.1173  11.1528  11.1715
    11.1976  11.2487  11.2991  11.3559  11.3716  11.4254  11.4776  11.5195
    11.5352  11.6127  11.7166  11.7668  11.8662  11.9060  11.9620  11.9996
    12.1055  12.1235  12.1464  12.1793  12.5739  12.6124  12.6923  12.7224
    13.0310  14.2532  14.2731  14.3252  14.8812  14.8953  14.9941  15.0890
    15.1610  15.5072  15.6357  15.8888  15.9156  15.9541  16.0661  16.1906
    16.3658  16.3998  16.4223  16.4466  16.5714  16.6035  16.6441  16.6888
    16.7206  16.7569  16.7953  16.8100  16.8626  16.9344  16.9593  16.9726
    16.9798  17.0059  17.0404  17.1428  17.1651  17.1836  17.2135  17.2297
    17.2594  17.3226  17.3443  17.3795  17.4231  17.4684  17.5169  17.5761

          k = 0.0000-0.5000-0.5000 ( 30432 PWs)   bands (ev):

   -42.8942 -42.6529 -42.5774 -42.4844 -42.4576 -42.4382 -42.4040 -42.3914
   -42.3823 -42.3774 -42.3749 -42.3111 -42.2632 -42.2534 -42.2397 -42.2125
   -19.3228 -19.2466 -19.1868 -19.1156 -19.0743 -19.0549 -19.0309 -19.0264
   -19.0085 -18.9856 -18.9824 -18.9494 -18.9270 -18.9216 -18.9153 -18.8901
   -18.8771 -18.8673 -18.8605 -18.8395 -18.8194 -18.8050 -18.7831 -18.7765
   -18.7632 -18.7513 -18.7337 -18.7276 -18.7029 -18.6882 -18.6701 -18.6524
   -18.6474 -18.6231 -18.6177 -18.6149 -18.5857 -18.5679 -18.5639 -18.5351
   -18.5316 -18.5233 -18.5075 -18.4944 -18.4747 -18.4661 -18.4512 -18.4320
    -2.5418  -2.4779  -2.1049  -2.0718  -1.2641  -1.2242  -1.1964  -1.1431
    -0.9607  -0.8905  -0.8776  -0.8544  -0.7512  -0.6189  -0.5514  -0.5184
    -0.4989  -0.4700  -0.3567  -0.3236  -0.2282  -0.2216  -0.1126  -0.0825
    -0.0250   0.0040   0.0260   0.0970   0.1896   0.2142   0.2542   0.3142
     6.0797   6.3142   6.4830   6.5780   6.6905   6.8467   7.0754   7.1388
     7.1578   7.2307   7.4777   7.5038   7.5108   7.5935   7.6153   7.6452
     7.6962   7.8699   7.9220   8.0501   8.1215   8.1704   8.2378   8.2481
     8.3416   8.3795   8.4843   8.5400   8.6027   8.6528   8.9195   8.9719
     9.1859   9.2374   9.2586   9.3781   9.5202   9.5858   9.6081   9.7035
     9.7571   9.7908   9.8289   9.9079   9.9125   9.9594  10.0459  10.0798
    10.1033  10.1780  10.1919  10.2244  10.2551  10.3028  10.3886  10.4418
    10.4458  10.4777  10.5313  10.6136  10.6257  10.6751  10.7247  10.7418
    10.7976  10.8542  10.8812  10.8850  10.9670  10.9882  11.0087  11.0628
    11.1609  11.2063  11.2958  11.3487  11.4206  11.4585  11.4781  11.5260
    11.5870  11.6220  11.6551  11.7423  11.7656  11.7886  11.8761  11.9291
    11.9627  11.9859  12.0895  12.0975  12.1761  12.2040  12.4876  12.5340
    14.4535  14.5463  14.5466  14.6833  14.7938  14.8861  15.1629  15.2539
    15.3561  15.3849  15.5059  15.6054  15.6334  15.6973  15.8022  15.9403
    16.0359  16.1223  16.1442  16.2098  16.3493  16.3549  16.5009  16.5562
    16.6407  16.6557  16.6979  16.7222  16.8129  16.8505  16.9775  17.0101
    17.0477  17.0508  17.0633  17.1360  17.1400  17.1905  17.2066  17.3243
    17.3336  17.3973  17.4145  17.4465  17.4934  17.5527  17.6060  17.6445

          k =-0.5000-0.5000-0.5000 ( 30592 PWs)   bands (ev):

   -42.8942 -42.6529 -42.5774 -42.4842 -42.4578 -42.4382 -42.4046 -42.3924
   -42.3818 -42.3769 -42.3745 -42.3111 -42.2632 -42.2533 -42.2398 -42.2127
   -19.3228 -19.2465 -19.1863 -19.1130 -19.0672 -19.0515 -19.0343 -19.0272
   -19.0161 -18.9978 -18.9764 -18.9403 -18.9234 -18.9215 -18.9162 -18.8965
   -18.8844 -18.8657 -18.8570 -18.8424 -18.8182 -18.8075 -18.7886 -18.7719
   -18.7597 -18.7448 -18.7378 -18.7095 -18.6911 -18.6887 -18.6717 -18.6543
   -18.6449 -18.6342 -18.6249 -18.6088 -18.5932 -18.5818 -18.5740 -18.5524
   -18.5318 -18.5265 -18.5015 -18.4891 -18.4725 -18.4537 -18.4433 -18.4306
    -2.2972  -2.2054  -2.0558  -2.0095  -1.8382  -1.7221  -1.5808  -1.5029
    -0.6873  -0.6667  -0.6115  -0.5781  -0.5558  -0.5466  -0.4499  -0.4177
    -0.3447  -0.3329  -0.2703  -0.2522  -0.2351  -0.2150  -0.2019  -0.1283
    -0.0854  -0.0560  -0.0273   0.0257   0.0883   0.1009   0.1380   0.1676
     6.4357   6.4888   6.6969   6.7607   6.7928   6.8318   6.8842   6.9263
     6.9543   7.0947   7.1694   7.2273   7.3512   7.5551   7.5812   7.7045
     7.7557   7.8282   7.8975   7.9601   8.0484   8.0711   8.2200   8.5769
     8.7431   8.7933   8.8587   8.9257   8.9989   9.0730   9.1031   9.1538
     9.2259   9.3134   9.3271   9.4172   9.4372   9.4870   9.5270   9.5721
     9.5995   9.6502   9.6908   9.7056   9.7375   9.7665   9.8177   9.8501
     9.8815   9.9249   9.9801  10.0323  10.1275  10.1709  10.2346  10.2663
    10.3855  10.4870  10.5167  10.5441  10.6241  10.6360  10.6547  10.7078
    10.7465  10.7666  10.8172  10.8981  10.9312  10.9680  11.0733  11.1319
    11.1770  11.2327  11.3377  11.3479  11.4010  11.4257  11.4955  11.6113
    11.6596  11.6954  11.7223  11.7711  11.8841  11.9402  11.9621  12.0236
    12.0789  12.0934  12.1614  12.2419  12.2494  12.2877  12.3685  12.4100
    14.8166  14.8607  14.9058  14.9525  15.0011  15.0173  15.1350  15.1706
    15.1828  15.2782  15.3312  15.4474  15.5117  15.5728  15.5925  15.7446
    15.8196  15.8417  16.0987  16.1104  16.1419  16.2174  16.2466  16.2656
    16.3385  16.3563  16.4028  16.4884  16.5281  16.5614  16.5973  16.9777
    17.1182  17.1297  17.1517  17.2052  17.2493  17.2629  17.2982  17.3979
    17.4157  17.4356  17.4779  17.5864  17.6729  17.6873  17.7255  17.7346

          k =-0.5000 0.0000 0.0000 ( 30334 PWs)   bands (ev):

   -42.8942 -42.6528 -42.5774 -42.4843 -42.4575 -42.4387 -42.4038 -42.3926
   -42.3822 -42.3766 -42.3744 -42.3109 -42.2624 -42.2521 -42.2436 -42.2111
   -19.3230 -19.2470 -19.1906 -19.1177 -19.0601 -19.0503 -19.0355 -19.0267
   -19.0038 -18.9919 -18.9765 -18.9700 -18.9311 -18.9219 -18.9138 -18.8936
   -18.8799 -18.8706 -18.8510 -18.8342 -18.8194 -18.8035 -18.7932 -18.7633
   -18.7546 -18.7447 -18.7398 -18.7124 -18.6966 -18.6904 -18.6663 -18.6617
   -18.6436 -18.6398 -18.6310 -18.5992 -18.5966 -18.5748 -18.5637 -18.5452
   -18.5314 -18.5073 -18.5035 -18.4886 -18.4832 -18.4771 -18.4452 -18.4265
    -2.8184  -2.6089  -1.6830  -1.5855  -1.4148  -1.3645  -1.3366  -1.2225
    -1.1449  -1.0859  -0.8369  -0.7561  -0.5125  -0.4938  -0.4660  -0.4168
    -0.4071  -0.3411  -0.3114  -0.2780  -0.2192  -0.2175  -0.1719  -0.1388
    -0.0990  -0.0170  -0.0023   0.0656   0.0918   0.1060   0.1554   0.2731
     6.0841   6.1818   6.2131   6.3397   6.5968   6.6528   6.7090   6.8082
     7.3361   7.3609   7.4249   7.4783   7.5908   7.6671   7.7309   7.7731
     7.9955   8.0323   8.1059   8.1626   8.2372   8.3470   8.3786   8.4087
     8.4633   8.5589   8.6077   8.6699   8.6849   8.8204   8.8474   8.8866
     8.9292   9.0654   9.1225   9.1928   9.2204   9.5219   9.6624   9.7558
     9.7696   9.8743   9.9036   9.9185   9.9627  10.0610  10.0872  10.1644
    10.2170  10.2881  10.3197  10.3616  10.3914  10.4301  10.4476  10.4794
    10.5247  10.5589  10.6028  10.6109  10.6622  10.6859  10.7057  10.7314
    10.7526  10.8449  10.8533  10.9040  10.9773  10.9973  11.0577  11.0728
    11.0906  11.1118  11.1338  11.1612  11.2716  11.3643  11.4040  11.4309
    11.4551  11.4750  11.5361  11.5569  11.7204  11.7618  11.8189  11.8298
    11.8599  11.9007  12.0358  12.1198  12.5713  12.6173  12.6703  12.7064
    13.3869  13.9876  14.3991  14.5719  14.8291  15.0384  15.0498  15.1802
    15.2336  15.4220  15.4757  15.4931  15.5786  15.8552  15.9443  16.0827
    16.1299  16.3257  16.3482  16.4560  16.5058  16.5525  16.6649  16.6921
    16.7193  16.7891  16.8423  16.9171  16.9495  16.9720  17.0125  17.0343
    17.0734  17.1264  17.1730  17.1845  17.2186  17.2413  17.2660  17.2809
    17.2933  17.3133  17.3493  17.3620  17.4046  17.4363  17.4527  17.5805

          k = 0.0000-0.5000 0.0000 ( 30334 PWs)   bands (ev):

   -42.8942 -42.6529 -42.5774 -42.4844 -42.4576 -42.4382 -42.4040 -42.3914
   -42.3824 -42.3774 -42.3747 -42.3111 -42.2632 -42.2533 -42.2397 -42.2125
   -19.3230 -19.2468 -19.1892 -19.1165 -19.0711 -19.0550 -19.0317 -19.0260
   -19.0048 -18.9854 -18.9815 -18.9527 -18.9306 -18.9205 -18.9138 -18.8924
   -18.8785 -18.8636 -18.8619 -18.8378 -18.8208 -18.8029 -18.7801 -18.7762
   -18.7630 -18.7494 -18.7370 -18.7274 -18.7035 -18.6883 -18.6773 -18.6491
   -18.6482 -18.6225 -18.6155 -18.6098 -18.5862 -18.5680 -18.5659 -18.5360
   -18.5324 -18.5239 -18.5066 -18.4935 -18.4749 -18.4661 -18.4516 -18.4324
    -2.7480  -2.7083  -1.6410  -1.5231  -1.4398  -1.3851  -1.2855  -1.2668
    -1.1967  -1.0645  -0.8654  -0.7564  -0.5264  -0.4338  -0.4201  -0.3949
    -0.3761  -0.3515  -0.3035  -0.2913  -0.2604  -0.2181  -0.1660  -0.1488
    -0.1155  -0.0983  -0.0546   0.0398   0.1079   0.1568   0.1749   0.2993
     6.0156   6.1643   6.3592   6.3771   6.4601   6.5617   6.8190   6.8988
     7.3097   7.4111   7.4996   7.5251   7.5772   7.6379   7.7390   7.7752
     7.7982   7.8778   8.0853   8.2431   8.3025   8.3070   8.3510   8.4832
     8.5178   8.5724   8.6178   8.6504   8.6959   8.7558   8.7894   8.8771
     8.9377   9.0711   9.1955   9.2775   9.3026   9.4541   9.7425   9.7785
     9.7956   9.8290   9.8935   9.9654  10.0063  10.0360  10.0849  10.1209
    10.1558  10.2154  10.2674  10.2947  10.3676  10.4067  10.4346  10.4961
    10.5050  10.5340  10.5447  10.5872  10.6325  10.6529  10.6690  10.7286
    10.7598  10.8085  10.8423  10.9208  11.0073  11.0149  11.0569  11.0831
    11.1311  11.1581  11.1899  11.2284  11.2803  11.3212  11.3582  11.4070
    11.5286  11.5792  11.5972  11.6213  11.6881  11.7265  11.7313  11.8044
    11.8864  11.9165  12.0832  12.0883  12.6167  12.6514  12.6625  12.6798
    13.7119  13.7176  14.5181  14.6713  14.6992  14.7471  15.1414  15.2148
    15.2250  15.2552  15.3215  15.6937  15.7030  15.7691  15.8426  16.1260
    16.3254  16.3500  16.3919  16.4111  16.4776  16.6283  16.6507  16.6736
    16.7341  16.7842  16.7895  16.8205  16.9343  16.9874  17.0165  17.0389
    17.0733  17.1505  17.1816  17.1950  17.2422  17.2547  17.2792  17.3037
    17.3138  17.3611  17.3701  17.4003  17.4629  17.4824  17.5033  17.5240

          k =-0.5000 0.0000 0.5000 ( 30432 PWs)   bands (ev):

   -42.8942 -42.6529 -42.5774 -42.4843 -42.4575 -42.4387 -42.4038 -42.3926
   -42.3820 -42.3767 -42.3746 -42.3109 -42.2624 -42.2521 -42.2436 -42.2111
   -19.3228 -19.2468 -19.1875 -19.1199 -19.0590 -19.0504 -19.0371 -19.0266
   -19.0056 -18.9929 -18.9752 -18.9699 -18.9312 -18.9225 -18.9186 -18.8902
   -18.8804 -18.8629 -18.8522 -18.8321 -18.8191 -18.8036 -18.7967 -18.7660
   -18.7551 -18.7431 -18.7412 -18.7129 -18.6966 -18.6903 -18.6701 -18.6603
   -18.6456 -18.6359 -18.6314 -18.5993 -18.5964 -18.5746 -18.5632 -18.5443
   -18.5308 -18.5079 -18.5035 -18.4885 -18.4830 -18.4773 -18.4452 -18.4266
    -2.5964  -2.3988  -2.1922  -1.9425  -1.3055  -1.2723  -1.2070  -1.1669
    -1.0278  -0.9729  -0.8036  -0.7914  -0.7107  -0.6568  -0.5907  -0.5549
    -0.4974  -0.4300  -0.3006  -0.2403  -0.2142  -0.1933  -0.1320  -0.0473
    -0.0250  -0.0091   0.0490   0.0782   0.1698   0.2042   0.2534   0.2596
     6.1302   6.2795   6.3994   6.7071   6.7135   6.9444   7.0708   7.0839
     7.1389   7.1789   7.3542   7.5022   7.5398   7.5847   7.6085   7.6961
     7.7082   7.7989   7.8590   7.8759   8.0501   8.0872   8.2313   8.3162
     8.3650   8.5089   8.5493   8.6042   8.6927   8.6986   8.9346   9.0754
     9.1291   9.1891   9.2174   9.4118   9.4816   9.5896   9.6465   9.6526
     9.7350   9.7655   9.8795   9.9183   9.9360   9.9765  10.0362  10.0906
    10.1195  10.1476  10.1880  10.2601  10.2914  10.3248  10.4071  10.4533
    10.5024  10.5107  10.5441  10.6111  10.6495  10.6717  10.7153  10.7778
    10.7955  10.8356  10.8753  10.8855  10.8985  10.9962  11.0009  11.0826
    11.0961  11.1334  11.2558  11.3420  11.4515  11.4822  11.5399  11.5591
    11.6064  11.6835  11.7046  11.7241  11.7546  11.8092  11.8230  11.8827
    11.8996  11.9422  12.0313  12.0685  12.1064  12.2584  12.3998  12.5765
    14.3113  14.4153  14.6596  14.7085  14.8249  15.0405  15.1203  15.2325
    15.3731  15.4610  15.4988  15.5969  15.6291  15.7311  15.8452  15.9549
    15.9682  16.1603  16.2072  16.2126  16.2836  16.3202  16.4940  16.5146
    16.6174  16.6347  16.7253  16.7589  16.8675  16.9180  16.9458  16.9759
    17.0282  17.0545  17.0804  17.1286  17.1395  17.1474  17.2396  17.2635
    17.2860  17.3003  17.3749  17.4096  17.5045  17.5376  17.6129  17.6291

          k =-0.5000 0.5000 0.0000 ( 30432 PWs)   bands (ev):

   -42.8942 -42.6529 -42.5774 -42.4842 -42.4578 -42.4381 -42.4046 -42.3924
   -42.3819 -42.3769 -42.3744 -42.3111 -42.2632 -42.2533 -42.2398 -42.2126
   -19.3230 -19.2467 -19.1898 -19.1131 -19.0668 -19.0499 -19.0331 -19.0269
   -19.0106 -18.9963 -18.9763 -18.9408 -18.9260 -18.9204 -18.9152 -18.9029
   -18.8854 -18.8665 -18.8627 -18.8430 -18.8205 -18.8048 -18.7826 -18.7714
   -18.7593 -18.7437 -18.7349 -18.7100 -18.6910 -18.6855 -18.6710 -18.6543
   -18.6445 -18.6370 -18.6256 -18.6084 -18.5931 -18.5820 -18.5747 -18.5554
   -18.5314 -18.5267 -18.5005 -18.4880 -18.4724 -18.4540 -18.4435 -18.4310
    -2.4706  -2.4200  -2.2414  -2.2096  -1.2199  -1.1445  -1.1216  -1.0859
    -0.9924  -0.9509  -0.8805  -0.8153  -0.6263  -0.5991  -0.5136  -0.4675
    -0.4667  -0.4253  -0.4035  -0.2681  -0.2193  -0.1255  -0.0954  -0.0773
    -0.0670  -0.0516   0.0280   0.0496   0.0799   0.1144   0.1539   0.1946
     6.2080   6.2466   6.5583   6.6021   6.6290   6.6808   6.8766   6.9176
     7.0250   7.1223   7.1551   7.4311   7.5547   7.6527   7.6970   7.7881
     7.8444   7.8495   7.9393   8.0844   8.1086   8.1593   8.2694   8.3211
     8.3703   8.3796   8.5592   8.6079   8.8337   8.9593   9.0034   9.2069
     9.2979   9.4209   9.4875   9.5104   9.5762   9.6009   9.6837   9.7388
     9.7825   9.8591   9.9161   9.9703  10.0508  10.1284  10.1396  10.1848
    10.2004  10.2195  10.2577  10.2704  10.3073  10.3824  10.3907  10.4793
    10.5130  10.5510  10.5797  10.6282  10.6734  10.6906  10.6961  10.7132
    10.7308  10.7759  10.8340  10.8574  10.9048  10.9301  10.9653  10.9996
    11.0396  11.0632  11.0937  11.1178  11.1423  11.2267  11.2480  11.3323
    11.4085  11.4685  11.5006  11.5560  11.6130  11.6173  11.7065  11.8557
    11.9614  12.0045  12.0455  12.1072  12.2167  12.3253  12.4304  12.5240
    14.7339  14.7551  14.7762  14.7825  14.9485  14.9956  15.0922  15.1571
    15.1801  15.2106  15.2577  15.3648  15.6064  15.6948  15.8096  15.8695
    15.9715  15.9864  16.0170  16.1464  16.2436  16.2924  16.3328  16.3784
    16.4282  16.4934  16.5559  16.7571  16.7806  16.8025  16.8658  17.1601
    17.1955  17.2064  17.2475  17.2660  17.2779  17.3154  17.3174  17.3282
    17.4021  17.4234  17.4308  17.5140  17.5397  17.6103  17.6649  17.6827

     the Fermi energy is    15.1926 ev

!    total energy              =   -4480.58378247 Ry
     total all-electron energy =    -38603.196368 Ry
     estimated scf accuracy    <       0.00000045 Ry
     smearing contrib. (-TS)   =      -0.00472020 Ry
     internal energy E=F+TS    =   -4480.57906227 Ry

     The total energy is F=E-TS. E is the sum of the following terms:
     one-electron contribution =    -830.24582440 Ry
     hartree contribution      =     678.15208555 Ry
     xc contribution           =    -529.45500456 Ry
     ewald contribution        =   -1944.06023921 Ry
     one-center paw contrib.   =   -1854.97007966 Ry

     convergence has been achieved in  12 iterations

     Forces acting on atoms (cartesian axes, Ry/au):

     atom    1 type  1   force =    -0.01152551   -0.00543319    0.00839284
     atom    2 type  2   force =    -0.01163443   -0.00255650    0.00681447
     atom    3 type  1   force =    -0.00482580    0.00368322    0.00442846
     atom    4 type  2   force =     0.00019410    0.02061507    0.02981215
     atom    5 type  3   force =     0.01139772    0.00021651   -0.01233995
     atom    6 type  2   force =    -0.01434113   -0.00032880   -0.00994684
     atom    7 type  3   force =     0.01662437    0.00428415   -0.02096909
     atom    8 type  2   force =    -0.00300423   -0.01224012    0.03170637
     atom    9 type  1   force =     0.00173314    0.00472172   -0.00830210
     atom   10 type  2   force =    -0.02994435    0.00308815   -0.00688964
     atom   11 type  3   force =     0.01239535    0.00149168    0.00364664
     atom   12 type  2   force =    -0.00444470    0.00662230   -0.04816587
     atom   13 type  3   force =     0.01385358   -0.00077481    0.01205720
     atom   14 type  2   force =    -0.00549489    0.00217762    0.01064342
     atom   15 type  1   force =    -0.00120373   -0.00007031   -0.00910322
     atom   16 type  2   force =     0.00630567   -0.02541610   -0.02759587
     atom   17 type  1   force =    -0.00481967    0.00581771    0.01011159
     atom   18 type  2   force =    -0.03836346    0.00403560    0.03337008
     atom   19 type  1   force =    -0.00579286   -0.00335639   -0.00431551
     atom   20 type  2   force =     0.00093716   -0.02158085    0.02672128
     atom   21 type  1   force =    -0.00120958   -0.00074090    0.00428726
     atom   22 type  2   force =    -0.00678077    0.00001160   -0.02155325
     atom   23 type  3   force =     0.01089435   -0.00132601   -0.02034117
     atom   24 type  2   force =    -0.01639468    0.01137121    0.02685302
     atom   25 type  3   force =     0.00052794    0.01071841    0.02583649
     atom   26 type  2   force =    -0.00643796   -0.00357256   -0.02751901
     atom   27 type  3   force =     0.00592048   -0.00254144   -0.00892937
     atom   28 type  2   force =    -0.00345819   -0.00825875   -0.04252753
     atom   29 type  3   force =     0.00746489    0.00108638    0.01001030
     atom   30 type  2   force =    -0.03487734   -0.00165425    0.03687617
     atom   31 type  1   force =    -0.00243816    0.00053044   -0.00895491
     atom   32 type  2   force =     0.02682744    0.03203843   -0.03414526
     atom   33 type  1   force =     0.01249781   -0.00660463    0.00566456
     atom   34 type  2   force =     0.00963413   -0.01822580    0.02232387
     atom   35 type  1   force =     0.00525357    0.00614447    0.00881470
     atom   36 type  2   force =    -0.00145593    0.00563222    0.02033209
     atom   37 type  1   force =     0.00256440   -0.00011056   -0.00355838
     atom   38 type  2   force =     0.01675209    0.00035242   -0.02670328
     atom   39 type  3   force =    -0.01591418    0.00254560   -0.02181418
     atom   40 type  2   force =     0.00506748   -0.03997399    0.04109985
     atom   41 type  3   force =     0.00829226   -0.01445526    0.03001767
     atom   42 type  2   force =     0.03259172    0.02727901   -0.02805622
     atom   43 type  3   force =    -0.01273905    0.00136371    0.00660042
     atom   44 type  2   force =     0.00322062    0.03398716   -0.03419355
     atom   45 type  3   force =    -0.01685060   -0.00816709   -0.01447663
     atom   46 type  2   force =     0.00669527    0.00261445    0.04505780
     atom   47 type  1   force =     0.00136789   -0.00110599   -0.01079739
     atom   48 type  2   force =    -0.00736099   -0.00663278   -0.03513453
     atom   49 type  3   force =    -0.02010618   -0.00535750   -0.03126992
     atom   50 type  2   force =     0.02569573    0.01954389    0.00142141
     atom   51 type  1   force =     0.00632050   -0.00650521   -0.00606837
     atom   52 type  2   force =    -0.00175613   -0.00532463   -0.01243288
     atom   53 type  1   force =     0.00036721    0.00012736   -0.00569093
     atom   54 type  2   force =     0.00668650    0.00007008   -0.00489095
     atom   55 type  1   force =     0.00115258   -0.00016752    0.00936139
     atom   56 type  2   force =     0.02187529    0.03157313    0.03264251
     atom   57 type  3   force =    -0.00150450    0.01384363    0.03355079
     atom   58 type  2   force =     0.00713484   -0.03036875   -0.00176155
     atom   59 type  3   force =    -0.00663651    0.00163542   -0.00873259
     atom   60 type  2   force =     0.00232743   -0.03618049    0.02766474
     atom   61 type  1   force =     0.00308545    0.00224342    0.00656551
     atom   62 type  2   force =     0.04322267   -0.00167858    0.00589655
     atom   63 type  3   force =    -0.01017239    0.00402304    0.02064492
     atom   64 type  2   force =    -0.03539374    0.00522058   -0.04204660

     Total force =     0.241219     Total SCF correction =     0.002140


     Computing stress (Cartesian axis) and pressure

          total   stress  (Ry/bohr**3)                   (kbar)     P=       50.05
   0.00031996   0.00003680  -0.00003192           47.07        5.41       -4.69
   0.00003680   0.00030476  -0.00002476            5.41       44.83       -3.64
  -0.00003192  -0.00002476   0.00039602           -4.69       -3.64       58.26

     Energy error            =      1.7E-01 Ry
     Gradient error          =      4.8E-02 Ry/Bohr

     number of scf cycles    =   2
     number of bfgs steps    =   1

     energy             old  =   -4480.4143459418 Ry
     energy             new  =   -4480.5837824670 Ry

     CASE: energy            _new < energy            _old

     new trust radius        =       0.1193010710 bohr
     new conv_thr            =       0.0000004817 Ry


ATOMIC_POSITIONS (angstrom)
Al           -0.0124490237       -0.0066514709        0.0079286568
N             2.0575581687       -0.0039925961        0.0134117260
Al           -0.0058002102        2.0823449163        2.0828861340
N             2.0776351403        2.1277949882        2.1485599854
Ti            2.1004095725        0.0005149171        2.0472374412
N            -0.0403058085       -0.0003421573        2.0626706000
Ti            2.1110442347        2.0820585385       -0.0514374372
N            -0.0053625669        2.0579386189        0.0716041096
Al            0.0012339831        0.0052016553        4.1483729970
N             2.0105513325        0.0054767280        4.1425032012
Ti            0.0221073185        2.0801222732        6.2447096624
N             2.0722318205        2.0914474255        6.1421178994
Ti            2.1048940140       -0.0011180833        6.2603912957
N            -0.0109050349        0.0042091408        6.2492684584
Al            2.0762317011        2.0777715247        4.1469807323
N             0.0100407063        2.0184157124        4.0890399519
Al           -0.0036781817        4.1621163842        0.0093010634
N             2.0020706311        4.1627024899        0.0708206962
Al           -0.0078716211        6.2276044501        2.0726782316
N             2.0783661877        6.1804887434        2.1425251363
Al            2.0759611722        4.1539801913        2.0816233127
N            -0.0105530759        4.1544748885        2.0239820419
Ti            2.0999328724        6.2325983283       -0.0500118671
N            -0.0454571537        6.2497944940        0.0637754645
Ti           -0.0012692969        4.1799966425        4.2164379102
N             2.0658242673        4.1472881000        4.0889687674
Ti            0.0145936824        6.2283591187        6.2084710911
N             2.0740259675        6.2158929591        6.1536510332
Ti            2.0947941727        4.1567804950        6.2558616039
N            -0.0734269973        4.1518631672        6.3018020670
Al            2.0762729690        6.2324630304        4.1478981998
N             0.0605449541        6.2985176900        4.0825206383
Al            4.1686307866       -0.0065768514        0.0027616623
N             6.2486363319       -0.0454212181        0.0562180489
Al            4.1610821719        2.0849333430        2.0867614228
N             6.2307022335        2.0856226910        2.1295116466
Al            6.2353152399       -0.0007585945        2.0742287638
N             4.1974476688        0.0008295994        2.0136933835
Ti            6.2004443156        2.0836055799       -0.0556279480
N             4.1635500365        1.9987205745        0.0850416123
Ti            4.1682726880       -0.0313078818        4.2218769102
N             6.3016639056        0.0602668249        4.0939716302
Ti            4.1325855027        2.0808118800        6.2512685547
N             6.2370758015        2.1473088246        6.1661204914
Ti            6.2024940103       -0.0115880535        6.2016679816
N             4.1670849925        0.0041139660        6.3148547644
Al            6.2340241131        2.0753300020        4.1446548407
N             4.1428320195        2.0653073107        4.0747314600
Ti            4.1098680247        4.1361408197       -0.0700937817
N             6.2945348894        4.2040527225        0.0068517259
Al            4.1630320640        6.2247698277        2.0715975428
N             6.2304176562        6.2250196455        2.0352038700
Al            6.2335180008        4.1557396887        2.0708538413
N             4.1663813826        4.1550255868        2.0693055253
Al            6.2334157448        6.2321110683        0.0089500542
N             4.2066714662        6.3018680620        0.0740145741
Ti            4.1548427701        4.1870811217        4.2332030926
N             6.2453629924        4.0883162370        4.1475174373
Ti            4.1393480027        6.2325402406        6.2076564774
N             6.2351026136        6.1587808902        6.2892881965
Al            6.2347376673        4.1581248474        6.2398766749
N             4.2371450722        4.1528334834        6.2441158826
Ti            6.2103143193        6.2371086163        4.2041597846
N             4.0842196179        6.2431758416        4.0692130719



     Writing config-only to output data dir ../output/relax_sqs_all_x/tmp_x05/TiAlN_x05_relax.save/
     NEW-OLD atomic charge density approx. for the potential

     Check: negative core charge=   -0.000021

     total cpu time spent up to now is      256.2 secs

     Self-consistent Calculation

     iteration #  1     ecut=    60.00 Ry     beta= 0.20
[...]
   -18.7300 -18.7204 -18.7156 -18.7020 -18.6812 -18.6766 -18.6604 -18.6516
   -18.6389 -18.6261 -18.6143 -18.5964 -18.5840 -18.5714 -18.5616 -18.5494
    -2.8287  -2.7716  -1.7634  -1.6377  -1.5104  -1.4353  -1.3374  -1.3305
    -1.2365  -1.0562  -0.9227  -0.7690  -0.5744  -0.5421  -0.4803  -0.4587
    -0.4507  -0.4168  -0.3305  -0.3072  -0.2726  -0.2460  -0.1784  -0.1456
    -0.0898  -0.0749  -0.0406   0.0644   0.1620   0.1764   0.2244   0.3263
     6.0962   6.2069   6.4106   6.4253   6.4848   6.5881   6.8600   6.9214
     7.2852   7.4031   7.4537   7.5023   7.5260   7.6579   7.7127   7.7703
     7.8281   7.8820   8.1167   8.2422   8.2610   8.2760   8.3783   8.4441
     8.4981   8.5681   8.5875   8.6197   8.6623   8.7431   8.8035   8.8843
     8.9135   9.0654   9.1620   9.2301   9.2883   9.5117   9.7133   9.7524
     9.8008   9.8470   9.8943   9.9469   9.9659   9.9744  10.0583  10.0650
    10.0968  10.1932  10.2699  10.2864  10.3221  10.4223  10.4344  10.5040
    10.5089  10.5338  10.5484  10.6159  10.6564  10.6777  10.7245  10.7722
    10.8251  10.8608  10.8836  10.9950  11.0645  11.0716  11.0818  11.0961
    11.1628  11.2218  11.2419  11.2814  11.3272  11.3986  11.4099  11.4400
    11.5619  11.5844  11.6149  11.6860  11.7372  11.7678  11.7795  11.8365
    11.9581  12.0057  12.1032  12.1390  12.6144  12.6440  12.6619  12.7053
    13.4495  13.4800  14.2828  14.4012  14.4904  14.5347  14.8868  14.9699
    14.9979  15.0451  15.0642  15.5181  15.5624  15.6049  15.6352  15.9983
    16.1284  16.1540  16.2191  16.2554  16.3266  16.4400  16.5018  16.5355
    16.5786  16.6033  16.6082  16.6692  16.7607  16.8366  16.8712  16.8964
    16.9783  17.0174  17.0561  17.0818  17.0927  17.1716  17.1824  17.2163
    17.2340  17.2810  17.3026  17.3318  17.3348  17.3682  17.4214  17.4502

          k =-0.5000 0.0000 0.5000 ( 30432 PWs)   bands (ev):

   -43.0857 -42.8557 -42.6907 -42.6674 -42.6293 -42.5990 -42.5560 -42.5179
   -42.5027 -42.4650 -42.4384 -42.4177 -42.3911 -42.3846 -42.3816 -42.3571
   -19.4908 -19.4018 -19.3758 -19.2868 -19.2247 -19.2142 -19.1874 -19.1696
   -19.1405 -19.1330 -19.1204 -19.1085 -19.0834 -19.0539 -19.0384 -19.0102
   -19.0068 -19.0010 -18.9800 -18.9642 -18.9533 -18.9302 -18.9165 -18.9074
   -18.8825 -18.8719 -18.8653 -18.8385 -18.8249 -18.8097 -18.7787 -18.7626
   -18.7522 -18.7482 -18.7126 -18.7002 -18.6952 -18.6763 -18.6682 -18.6481
   -18.6284 -18.6117 -18.6004 -18.5969 -18.5922 -18.5804 -18.5656 -18.5400
    -2.7009  -2.4727  -2.2544  -1.9864  -1.3871  -1.3491  -1.2932  -1.2729
    -1.0620  -0.9985  -0.8504  -0.8394  -0.8166  -0.7123  -0.6135  -0.5764
    -0.5010  -0.4315  -0.2950  -0.2703  -0.2367  -0.1875  -0.1317  -0.0705
    -0.0093   0.0136   0.0562   0.0653   0.2042   0.2110   0.2213   0.2868
     6.1928   6.2818   6.4494   6.6916   6.7414   7.0268   7.0806   7.1597
     7.1719   7.2549   7.3107   7.4915   7.5357   7.5765   7.6182   7.6678
     7.6734   7.7705   7.8304   7.8817   8.0515   8.0777   8.1811   8.2765
     8.3400   8.5053   8.5218   8.6046   8.6512   8.7290   8.9237   9.0082
     9.1129   9.1885   9.2033   9.3714   9.4850   9.5359   9.6325   9.7090
     9.7411   9.7987   9.8720   9.9277   9.9345   9.9833  10.0439  10.0802
    10.1370  10.1822  10.1928  10.2473  10.2792  10.3562  10.4086  10.4309
    10.5026  10.5281  10.5524  10.5824  10.6685  10.7513  10.7724  10.8080
    10.8400  10.8750  10.8969  10.9397  10.9668  11.0032  11.0452  11.0952
    11.1464  11.1775  11.3069  11.3366  11.4601  11.5162  11.5257  11.5744
    11.6689  11.7048  11.7156  11.7430  11.7712  11.8026  11.8590  11.8933
    11.9542  11.9701  12.0106  12.0638  12.1389  12.2829  12.3945  12.6024
    13.9271  14.1289  14.3717  14.3828  14.6881  14.8081  14.9253  15.0242
    15.1647  15.2229  15.2827  15.4463  15.4975  15.5360  15.7275  15.8117
    15.8276  16.0061  16.0881  16.1169  16.1570  16.1935  16.3935  16.4211
    16.4650  16.4796  16.5809  16.6660  16.6859  16.7643  16.7971  16.8594
    16.9056  16.9553  16.9639  17.0066  17.0273  17.0975  17.1325  17.1643
    17.2207  17.2502  17.3104  17.3473  17.3663  17.4443  17.4754  17.6190

          k =-0.5000 0.5000 0.0000 ( 30432 PWs)   bands (ev):

   -43.0857 -42.8557 -42.6902 -42.6681 -42.6292 -42.5988 -42.5554 -42.5195
   -42.5016 -42.4648 -42.4404 -42.4169 -42.3910 -42.3869 -42.3742 -42.3612
   -19.4909 -19.4015 -19.3772 -19.2844 -19.2274 -19.2148 -19.1856 -19.1667
   -19.1485 -19.1356 -19.1269 -19.0847 -19.0558 -19.0476 -19.0374 -19.0238
   -19.0227 -19.0120 -18.9795 -18.9676 -18.9563 -18.9329 -18.9194 -18.8939
   -18.8887 -18.8733 -18.8670 -18.8497 -18.8263 -18.8066 -18.7874 -18.7732
   -18.7327 -18.7261 -18.7159 -18.7000 -18.6868 -18.6759 -18.6673 -18.6574
   -18.6385 -18.6242 -18.6100 -18.5941 -18.5839 -18.5655 -18.5599 -18.5468
    -2.5724  -2.4973  -2.3082  -2.2555  -1.3286  -1.2567  -1.2182  -1.1656
    -1.0609  -0.9397  -0.9113  -0.8921  -0.6706  -0.6526  -0.5491  -0.5238
    -0.4492  -0.4251  -0.3509  -0.2768  -0.2636  -0.1456  -0.1192  -0.1033
    -0.0836  -0.0325   0.0226   0.0616   0.1097   0.1411   0.1676   0.2217
     6.2315   6.3097   6.5378   6.6299   6.6707   6.7056   6.9064   6.9556
     7.0408   7.1858   7.2118   7.3967   7.5504   7.6562   7.6826   7.7712
     7.7961   7.8428   7.8919   8.0524   8.1173   8.1316   8.2714   8.2854
     8.3366   8.3709   8.5597   8.5977   8.8381   8.9396   9.0317   9.1960
     9.3088   9.4385   9.4789   9.5321   9.5781   9.6016   9.6422   9.6990
     9.7444   9.7867   9.9126   9.9701  10.0078  10.0274  10.1338  10.1436
    10.1608  10.1956  10.2579  10.2869  10.3112  10.3724  10.3885  10.4886
    10.5031  10.5493  10.5936  10.6663  10.6797  10.6947  10.7217  10.7560
    10.7954  10.8103  10.8515  10.9172  10.9777  10.9939  11.0071  11.0386
    11.0562  11.0942  11.1251  11.1489  11.2441  11.2820  11.3032  11.3856
    11.4487  11.4923  11.5486  11.5654  11.6552  11.6628  11.7356  11.8859
    11.9579  11.9719  12.0800  12.1014  12.2687  12.4097  12.4899  12.5872
    14.3914  14.4239  14.4609  14.5776  14.6872  14.7164  14.8414  14.9408
    15.0276  15.0498  15.1280  15.2702  15.4238  15.5815  15.5864  15.6444
    15.7230  15.7735  15.9027  16.0278  16.0682  16.1576  16.2264  16.2522
    16.3082  16.4309  16.4887  16.5988  16.6469  16.6881  16.7438  17.0094
    17.0647  17.1131  17.1289  17.1673  17.1902  17.2167  17.2372  17.2473
    17.3064  17.3384  17.3758  17.3950  17.4244  17.4611  17.5222  17.5395

     the Fermi energy is    14.9860 ev

!    total energy              =   -4480.66119829 Ry
     total all-electron energy =    -38603.273784 Ry
     estimated scf accuracy    <       0.00000002 Ry
     smearing contrib. (-TS)   =      -0.00366716 Ry
     internal energy E=F+TS    =   -4480.65753113 Ry

     The total energy is F=E-TS. E is the sum of the following terms:
     one-electron contribution =    -808.10731373 Ry
     hartree contribution      =     666.32638434 Ry
     xc contribution           =    -529.43402202 Ry
     ewald contribution        =   -1954.42669265 Ry
     one-center paw contrib.   =   -1855.01588707 Ry

     convergence has been achieved in   9 iterations

     Forces acting on atoms (cartesian axes, Ry/au):

     atom    1 type  1   force =     0.00048132    0.00025951   -0.00072232
     atom    2 type  2   force =     0.00107731   -0.00027348   -0.00123749
     atom    3 type  1   force =    -0.00019135    0.00026502   -0.00131526
     atom    4 type  2   force =    -0.00011137    0.00056672   -0.00027971
     atom    5 type  3   force =     0.00150153    0.00014943   -0.00239779
     atom    6 type  2   force =    -0.00024659    0.00057677    0.00038510
     atom    7 type  3   force =    -0.00035665   -0.00115902   -0.00062201
     atom    8 type  2   force =    -0.00018097    0.00089312   -0.00012447
     atom    9 type  1   force =     0.00016279    0.00021725   -0.00104879
     atom   10 type  2   force =     0.00023238   -0.00001529   -0.00098322
     atom   11 type  3   force =     0.00026738   -0.00045730   -0.00019100
     atom   12 type  2   force =     0.00032588   -0.00003441    0.00080001
     atom   13 type  3   force =    -0.00071469   -0.00005398    0.00055026
     atom   14 type  2   force =     0.00052910    0.00034298   -0.00053430
     atom   15 type  1   force =    -0.00011730    0.00023344    0.00043461
     atom   16 type  2   force =    -0.00047806    0.00043496   -0.00112828
     atom   17 type  1   force =     0.00076304   -0.00042894   -0.00085941
     atom   18 type  2   force =     0.00063955   -0.00055929   -0.00073410
     atom   19 type  1   force =    -0.00052587    0.00060619    0.00034769
     atom   20 type  2   force =    -0.00020782   -0.00034894    0.00040297
     atom   21 type  1   force =    -0.00095388    0.00018002   -0.00096136
     atom   22 type  2   force =     0.00035679    0.00002078   -0.00020812
     atom   23 type  3   force =    -0.00024778    0.00049047   -0.00018083
     atom   24 type  2   force =    -0.00103602   -0.00111031    0.00076303
     atom   25 type  3   force =     0.00013079    0.00056183    0.00072909
     atom   26 type  2   force =    -0.00022714    0.00066367   -0.00097509
     atom   27 type  3   force =    -0.00005795    0.00073182    0.00002802
     atom   28 type  2   force =     0.00051363    0.00024185    0.00055560
     atom   29 type  3   force =    -0.00022862    0.00029002   -0.00052357
     atom   30 type  2   force =    -0.00061223   -0.00004609   -0.00028709
     atom   31 type  1   force =     0.00020271    0.00090992    0.00067470
     atom   32 type  2   force =     0.00041600    0.00041767    0.00005207
     atom   33 type  1   force =     0.00106460   -0.00022318   -0.00113455
     atom   34 type  2   force =    -0.00064176   -0.00055533    0.00132239
     atom   35 type  1   force =     0.00039477    0.00055068   -0.00087185
     atom   36 type  2   force =    -0.00005131    0.00001110    0.00078037
     atom   37 type  1   force =     0.00009320    0.00004371    0.00140750
     atom   38 type  2   force =     0.00101315   -0.00013890   -0.00002401
     atom   39 type  3   force =    -0.00022854   -0.00048549   -0.00030024
     atom   40 type  2   force =    -0.00060460   -0.00013332   -0.00046285
     atom   41 type  3   force =    -0.00001175    0.00023912    0.00036837
     atom   42 type  2   force =    -0.00006862    0.00082283    0.00061614
     atom   43 type  3   force =     0.00002182   -0.00037634   -0.00005648
     atom   44 type  2   force =     0.00006613    0.00021207    0.00053221
     atom   45 type  3   force =     0.00087291   -0.00000518    0.00066833
     atom   46 type  2   force =    -0.00011147   -0.00045577   -0.00121739
     atom   47 type  1   force =     0.00062373    0.00037138    0.00141073
     atom   48 type  2   force =     0.00073019    0.00051064   -0.00062730
     atom   49 type  3   force =    -0.00032457   -0.00090030   -0.00066674
     atom   50 type  2   force =     0.00011166   -0.00015438    0.00020500
     atom   51 type  1   force =     0.00028134   -0.00147528    0.00081717
     atom   52 type  2   force =    -0.00012085    0.00020145   -0.00069084
     atom   53 type  1   force =    -0.00006276    0.00012244    0.00147348
     atom   54 type  2   force =    -0.00083382   -0.00054038    0.00090145
     atom   55 type  1   force =    -0.00042807   -0.00072758   -0.00083950
     atom   56 type  2   force =     0.00012932   -0.00099544    0.00063373
     atom   57 type  3   force =    -0.00077578   -0.00008549    0.00104158
     atom   58 type  2   force =    -0.00044525    0.00004132    0.00138933
     atom   59 type  3   force =    -0.00003161   -0.00054617    0.00004760
     atom   60 type  2   force =    -0.00039219   -0.00024511    0.00032187
     atom   61 type  1   force =    -0.00065969    0.00023948    0.00057061
     atom   62 type  2   force =    -0.00094742   -0.00051788    0.00048124
     atom   63 type  3   force =     0.00026078    0.00071101    0.00099785
     atom   64 type  2   force =    -0.00002948   -0.00008210    0.00049582

     Total force =     0.008848     Total SCF correction =     0.000577


     Computing stress (Cartesian axis) and pressure

          total   stress  (Ry/bohr**3)                   (kbar)     P=       45.17
   0.00028006   0.00004266  -0.00003243           41.20        6.27       -4.77
   0.00004266   0.00026703  -0.00004390            6.27       39.28       -6.46
  -0.00003243  -0.00004390   0.00037416           -4.77       -6.46       55.04

     Energy error            =      3.5E-04 Ry
     Gradient error          =      2.4E-03 Ry/Bohr

     number of scf cycles    =   8
     number of bfgs steps    =   7

     energy             old  =   -4480.6608447568 Ry
     energy             new  =   -4480.6611982931 Ry

     CASE: energy            _new < energy            _old

     new trust radius        =       0.0094744231 bohr

     The maximum number of steps has been reached.

     End of BFGS Geometry Optimization

ATOMIC_POSITIONS (angstrom)
Al           -0.0382326572       -0.0100146388        0.0343742987
N             2.0463150504       -0.0076909018        0.0152489849
Al           -0.0167020712        2.0933034409        2.0762775898
N             2.0778460047        2.1273256821        2.1266860178
Ti            2.1285634366        0.0003574750        2.0319984114
N            -0.0304498138        0.0029949195        2.0526592401
Ti            2.1181100987        2.0822179787       -0.0445894522
N            -0.0177716269        2.0436133413        0.0649299909
Al            0.0113347498        0.0179787609        4.1048056407
N             2.0175485211        0.0116610386        4.1262474845
Ti            0.0338514085        2.0805279050        6.2383211085
N             2.0644633781        2.0920093554        6.1125417107
Ti            2.1100062628       -0.0024650956        6.2595645141
N            -0.0160933140        0.0020934192        6.2685608219
Al            2.0702838405        2.0715529071        4.1036313487
N             0.0150048178        2.0295400116        4.0821822992
Al           -0.0218936827        4.1712284140        0.0464698660
N             1.9775632453        4.1613485431        0.0805302823
Al           -0.0189814635        6.2255619113        2.0679093614
N             2.0786783713        6.1820946313        2.1135125187
Al            2.0654757743        4.1541486346        2.0910428839
N            -0.0304313525        4.1587261810        2.0423016301
Ti            2.1088002486        6.2287228584       -0.0519481967
N            -0.0384698495        6.2599455732        0.0677950530
Ti           -0.0046137699        4.1909209523        4.2327357336
N             2.0580960748        4.1501227412        4.0901785447
Ti            0.0114578755        6.2284832939        6.2083999167
N             2.0637070423        6.2181548779        6.1235701461
Ti            2.0924171004        4.1596457291        6.2566951963
N            -0.0637563286        4.1526214107        6.3390401723
Al            2.0596954612        6.2482107594        4.1000940687
N             0.0457399702        6.3115739981        4.0701276981
Al            4.2156293038       -0.0255141212        0.0451178085
N             6.2532140645       -0.0463032447        0.0604258427
Al            4.1766604847        2.1056657918        2.1078442440
N             6.2304836138        2.0974831157        2.1138983510
Al            6.2433961317        0.0016724858        2.0741571391
N             4.2042802745       -0.0043480708        2.0332214986
Ti            6.1863919138        2.0843450624       -0.0625345995
N             4.1665880752        1.9841648926        0.0935187988
Ti            4.1835695246       -0.0366758074        4.2339722705
N             6.3119368459        0.0661701989        4.0788355791
Ti            4.1211952495        2.0761947439        6.2406431564
N             6.2424598480        2.1432940872        6.1528866566
Ti            6.1941868067       -0.0235441787        6.1897001276
N             4.1697419237        0.0032557898        6.3578761692
Al            6.2447193742        2.0828900401        4.1214583733
N             4.1377522683        2.0644222304        4.0792732581
Ti            4.0939782980        4.1281196133       -0.0644765273
N             6.2803578570        4.1936477814        0.0157374199
Al            4.1783924512        6.1961485740        2.0627595619
N             6.2280809633        6.2147372289        2.0559781199
Al            6.2313507742        4.1547073359        2.0688504350
N             4.1749718310        4.1514339433        2.0635848586
Al            6.2406645987        6.2249648498        0.0343536263
N             4.2087855914        6.2907770001        0.0761094198
Ti            4.1558913045        4.1885449572        4.2311077273
N             6.2488756730        4.0967566148        4.1513960771
Ti            4.1432384991        6.2385179684        6.2064258517
N             6.2426666054        6.1550053347        6.3111328927
Al            6.2525081094        4.1551999505        6.2622424630
N             4.2523713219        4.1528504082        6.2412698577
Ti            6.1964738575        6.2482975614        4.2130099999
N             4.0716237584        6.2406017539        4.0583286578



     Writing config-only to output data dir ../output/relax_sqs_all_x/tmp_x05/TiAlN_x05_relax.save/
     NEW-OLD atomic charge density approx. for the potential

     Check: negative core charge=   -0.000021
 
     init_run     :      2.95s CPU      3.10s WALL (       1 calls)
     electrons    :    649.33s CPU    662.26s WALL (       8 calls)
     update_pot   :      2.21s CPU      2.23s WALL (       8 calls)
     forces       :     13.76s CPU     14.13s WALL (       8 calls)
     stress       :    131.96s CPU    133.09s WALL (       8 calls)

     Called by init_run:
     wfcinit      :      2.52s CPU      2.61s WALL (       1 calls)
     potinit      :      0.21s CPU      0.22s WALL (       1 calls)
     hinit0       :      0.12s CPU      0.13s WALL (       1 calls)

     Called by electrons:
     c_bands      :    560.76s CPU    569.98s WALL (      88 calls)
     sum_band     :     62.64s CPU     64.59s WALL (      88 calls)
     v_of_rho     :      3.34s CPU      3.40s WALL (      95 calls)
     newd         :      5.63s CPU      6.76s WALL (      95 calls)
     PAW_pot      :     16.57s CPU     16.77s WALL (     103 calls)
     mix_rho      :      3.79s CPU      4.10s WALL (      88 calls)

     Called by c_bands:
     init_us_2    :      7.86s CPU      7.97s WALL (     402 calls)
     init_us_2:cp :      7.85s CPU      7.96s WALL (     402 calls)
     cegterg      :    509.52s CPU    518.39s WALL (     176 calls)

     Called by *egterg:
     cdiaghg      :     49.10s CPU     49.68s WALL (     954 calls)
     h_psi        :    250.38s CPU    254.00s WALL (     974 calls)
     s_psi        :     65.03s CPU     65.52s WALL (     974 calls)
     g_psi        :      1.18s CPU      1.19s WALL (     796 calls)

     Called by h_psi:
     h_psi:calbec :     62.99s CPU     63.52s WALL (     974 calls)
     vloc_psi     :    119.71s CPU    121.55s WALL (     974 calls)
     add_vuspsi   :     65.72s CPU     66.29s WALL (     974 calls)

     General routines
     calbec       :     99.54s CPU    100.35s WALL (    1246 calls)
     fft          :      1.73s CPU      1.77s WALL (    1256 calls)
     ffts         :      1.96s CPU      1.99s WALL (    1720 calls)
     fftw         :    121.65s CPU    123.52s WALL (  259070 calls)
     davcio       :      0.00s CPU      0.13s WALL (       2 calls)
 
     Parallel routines
 
     PWSCF        :  13m25.50s CPU  13m41.14s WALL

 
   This run was terminated on:   3:41: 2  11May2026            

=------------------------------------------------------------------------------=
   JOB DONE.
=------------------------------------------------------------------------------=
