
     Program PWSCF v.7.1 starts on 11May2026 at  3:27:20 

     This program is part of the open-source Quantum ESPRESSO suite
     for quantum simulation of materials; please cite
         "P. Giannozzi et al., J. Phys.:Condens. Matter 21 395502 (2009);
         "P. Giannozzi et al., J. Phys.:Condens. Matter 29 465901 (2017);
         "P. Giannozzi et al., J. Chem. Phys. 152 154105 (2020);
          URL http://www.quantum-espresso.org", 
     in publications or presentations arising from this work. More details at
     http://www.quantum-espresso.org/quote

     Parallel version (MPI & OpenMP), running on      32 processor cores
     Number of MPI processes:                32
     Threads/MPI process:                     1

     MPI processes distributed on     1 nodes
     381269 MiB available memory on the printing compute node when the environment starts
 
     Reading input from relax_sqs_x075.in

     Current dimensions of program PWSCF are:
     Max number of different atomic species (ntypx) = 10
     Max number of k-points (npk) = 150000
     Max angular momentum in pseudopotentials (lmaxx) =  4
     file Al.pbe-n-kjpaw_psl.1.0.0.UPF: wavefunction(s)  3S 3P renormalized
     file N.pbe-n-kjpaw_psl.1.0.0.UPF: wavefunction(s)  2S renormalized
     file Ti.pbe-spn-kjpaw_psl.1.0.0.UPF: wavefunction(s)  3S 3P 3D renormalized
 
     K-points division:     npool     =       4
     R & G space division:  proc/nbgrp/npool/nimage =       8
     Subspace diagonalization in iterative solution of the eigenvalue problem:
     one sub-group per band group will be used
     scalapack distributed-memory algorithm (size of sub-group:  2*  2 procs)

 
     Parallelization info
     --------------------
     sticks:   dense  smooth     PW     G-vecs:    dense   smooth      PW
     Min         577     577    157                29435    29435    4205
     Max         578     578    159                29438    29438    4206
     Sum        4621    4621   1265               235497   235497   33641
 
     Using Slab Decomposition
 


     bravais-lattice index     =            0
     lattice parameter (alat)  =      15.5430  a.u.
     unit-cell volume          =    3754.9514 (a.u.)^3
     number of atoms/cell      =           64
     number of atomic types    =            3
     number of electrons       =       328.00
     number of Kohn-Sham states=          197
     kinetic-energy cutoff     =      60.0000  Ry
     charge density cutoff     =     240.0000  Ry
     scf convergence threshold =      1.0E-06
     mixing beta               =       0.2000
     number of iterations used =            8  local-TF  mixing
     energy convergence thresh.=      1.0E-04
     force convergence thresh. =      1.0E-03
     Exchange-correlation= SLA  PW   PBX  PBC
                           (   1   4   3   4   0   0   0)
     nstep                     =            8


     celldm(1)=  15.542997  celldm(2)=   0.000000  celldm(3)=   0.000000
     celldm(4)=   0.000000  celldm(5)=   0.000000  celldm(6)=   0.000000

     crystal axes: (cart. coord. in units of alat)
               a(1) = (   1.000000   0.000000   0.000000 )  
               a(2) = (   0.000000   1.000000   0.000000 )  
               a(3) = (   0.000000   0.000000   1.000000 )  

     reciprocal axes: (cart. coord. in units 2 pi/alat)
               b(1) = (  1.000000  0.000000  0.000000 )  
               b(2) = (  0.000000  1.000000  0.000000 )  
               b(3) = (  0.000000  0.000000  1.000000 )  


     PseudoPot. # 1 for Al read from file:
     ../../pseudo/Al.pbe-n-kjpaw_psl.1.0.0.UPF
     MD5 check sum: 502b6b27b9c6270cab5dd1084b96fa6d
     Pseudo is Projector augmented-wave + core cor, Zval =  3.0
     Generated using &quot;atomic&quot; code by A. Dal Corso  v.6.3
     Shape of augmentation charge: PSQ
     Using radial grid of 1135 points,  6 beta functions with: 
                l(1) =   0
                l(2) =   0
                l(3) =   1
                l(4) =   1
                l(5) =   2
                l(6) =   2
     Q(r) pseudized with 0 coefficients 


     PseudoPot. # 2 for N  read from file:
     ../../pseudo/N.pbe-n-kjpaw_psl.1.0.0.UPF
     MD5 check sum: 14c48229446f9f2d411169a3abcbc3fa
     Pseudo is Projector augmented-wave + core cor, Zval =  5.0
     Generated using &quot;atomic&quot; code by A. Dal Corso  v.6.3
     Shape of augmentation charge: PSQ
     Using radial grid of 1085 points,  4 beta functions with: 
                l(1) =   0
                l(2) =   0
                l(3) =   1
                l(4) =   1
     Q(r) pseudized with 0 coefficients 


     PseudoPot. # 3 for Ti read from file:
     ../../pseudo/Ti.pbe-spn-kjpaw_psl.1.0.0.UPF
     MD5 check sum: 01f69b0d8ba4438b2e03ac6ea4af1c0b
     Pseudo is Projector augmented-wave + core cor, Zval = 12.0
     Generated using &quot;atomic&quot; code by A. Dal Corso  v.6.2.2
     Shape of augmentation charge: PSQ
     Using radial grid of 1177 points,  6 beta functions with: 
                l(1) =   0
                l(2) =   0
                l(3) =   1
                l(4) =   1
                l(5) =   2
                l(6) =   2
     Q(r) pseudized with 0 coefficients 


     atomic species   valence    mass     pseudopotential
        Al             3.00    26.98200     Al( 1.00)
        N              5.00    14.00700     N ( 1.00)
        Ti            12.00    47.86700     Ti( 1.00)

     No symmetry found



   Cartesian axes

     site n.     atom                  positions (alat units)
         1           Al  tau(   1) = (   0.0000000   0.0000000   0.0000000  )
         2           N   tau(   2) = (   0.2500000   0.0000000   0.0000000  )
         3           Al  tau(   3) = (   0.0000000   0.2500000   0.2500000  )
         4           N   tau(   4) = (   0.2500000   0.2500000   0.2500000  )
         5           Al  tau(   5) = (   0.2500000   0.0000000   0.2500000  )
         6           N   tau(   6) = (   0.0000000   0.0000000   0.2500000  )
         7           Al  tau(   7) = (   0.2500000   0.2500000   0.0000000  )
         8           N   tau(   8) = (   0.0000000   0.2500000   0.0000000  )
         9           Al  tau(   9) = (   0.0000000   0.0000000   0.5000000  )
        10           N   tau(  10) = (   0.2500000   0.0000000   0.5000000  )
        11           Al  tau(  11) = (   0.0000000   0.2500000   0.7500000  )
        12           N   tau(  12) = (   0.2500000   0.2500000   0.7500000  )
        13           Al  tau(  13) = (   0.2500000   0.0000000   0.7500000  )
        14           N   tau(  14) = (   0.0000000   0.0000000   0.7500000  )
        15           Ti  tau(  15) = (   0.2500000   0.2500000   0.5000000  )
        16           N   tau(  16) = (   0.0000000   0.2500000   0.5000000  )
        17           Al  tau(  17) = (   0.0000000   0.5000000   0.0000000  )
        18           N   tau(  18) = (   0.2500000   0.5000000   0.0000000  )
        19           Ti  tau(  19) = (   0.0000000   0.7500000   0.2500000  )
        20           N   tau(  20) = (   0.2500000   0.7500000   0.2500000  )
        21           Al  tau(  21) = (   0.2500000   0.5000000   0.2500000  )
        22           N   tau(  22) = (   0.0000000   0.5000000   0.2500000  )
        23           Al  tau(  23) = (   0.2500000   0.7500000   0.0000000  )
        24           N   tau(  24) = (   0.0000000   0.7500000   0.0000000  )
        25           Al  tau(  25) = (   0.0000000   0.5000000   0.5000000  )
        26           N   tau(  26) = (   0.2500000   0.5000000   0.5000000  )
        27           Al  tau(  27) = (   0.0000000   0.7500000   0.7500000  )
        28           N   tau(  28) = (   0.2500000   0.7500000   0.7500000  )
        29           Al  tau(  29) = (   0.2500000   0.5000000   0.7500000  )
        30           N   tau(  30) = (   0.0000000   0.5000000   0.7500000  )
        31           Al  tau(  31) = (   0.2500000   0.7500000   0.5000000  )
        32           N   tau(  32) = (   0.0000000   0.7500000   0.5000000  )
        33           Al  tau(  33) = (   0.5000000   0.0000000   0.0000000  )
        34           N   tau(  34) = (   0.7500000   0.0000000   0.0000000  )
        35           Al  tau(  35) = (   0.5000000   0.2500000   0.2500000  )
        36           N   tau(  36) = (   0.7500000   0.2500000   0.2500000  )
        37           Al  tau(  37) = (   0.7500000   0.0000000   0.2500000  )
        38           N   tau(  38) = (   0.5000000   0.0000000   0.2500000  )
        39           Al  tau(  39) = (   0.7500000   0.2500000   0.0000000  )
        40           N   tau(  40) = (   0.5000000   0.2500000   0.0000000  )
        41           Al  tau(  41) = (   0.5000000   0.0000000   0.5000000  )
        42           N   tau(  42) = (   0.7500000   0.0000000   0.5000000  )
        43           Al  tau(  43) = (   0.5000000   0.2500000   0.7500000  )
        44           N   tau(  44) = (   0.7500000   0.2500000   0.7500000  )
        45           Al  tau(  45) = (   0.7500000   0.0000000   0.7500000  )
        46           N   tau(  46) = (   0.5000000   0.0000000   0.7500000  )
        47           Ti  tau(  47) = (   0.7500000   0.2500000   0.5000000  )
        48           N   tau(  48) = (   0.5000000   0.2500000   0.5000000  )
        49           Ti  tau(  49) = (   0.5000000   0.5000000   0.0000000  )
        50           N   tau(  50) = (   0.7500000   0.5000000   0.0000000  )
        51           Al  tau(  51) = (   0.5000000   0.7500000   0.2500000  )
        52           N   tau(  52) = (   0.7500000   0.7500000   0.2500000  )
        53           Ti  tau(  53) = (   0.7500000   0.5000000   0.2500000  )
        54           N   tau(  54) = (   0.5000000   0.5000000   0.2500000  )
        55           Al  tau(  55) = (   0.7500000   0.7500000   0.0000000  )
        56           N   tau(  56) = (   0.5000000   0.7500000   0.0000000  )
        57           Ti  tau(  57) = (   0.5000000   0.5000000   0.5000000  )
        58           N   tau(  58) = (   0.7500000   0.5000000   0.5000000  )
        59           Ti  tau(  59) = (   0.5000000   0.7500000   0.7500000  )
        60           N   tau(  60) = (   0.7500000   0.7500000   0.7500000  )
        61           Ti  tau(  61) = (   0.7500000   0.5000000   0.7500000  )
        62           N   tau(  62) = (   0.5000000   0.5000000   0.7500000  )
        63           Al  tau(  63) = (   0.7500000   0.7500000   0.5000000  )
        64           N   tau(  64) = (   0.5000000   0.7500000   0.5000000  )

     number of k points=     8  Gaussian smearing, width (Ry)=  0.0050
                       cart. coord. in units 2pi/alat
        k(    1) = (   0.0000000   0.0000000   0.0000000), wk =   0.2500000
        k(    2) = (   0.0000000   0.0000000  -0.5000000), wk =   0.2500000
        k(    3) = (   0.0000000  -0.5000000  -0.5000000), wk =   0.2500000
        k(    4) = (  -0.5000000  -0.5000000  -0.5000000), wk =   0.2500000
        k(    5) = (  -0.5000000   0.0000000   0.0000000), wk =   0.2500000
        k(    6) = (   0.0000000  -0.5000000   0.0000000), wk =   0.2500000
        k(    7) = (  -0.5000000   0.0000000   0.5000000), wk =   0.2500000
        k(    8) = (  -0.5000000   0.5000000   0.0000000), wk =   0.2500000

     Dense  grid:   235497 G-vectors     FFT dimensions: (  80,  80,  80)

     Estimated max dynamical RAM per process >     172.84 MB

     Estimated total dynamical RAM >       5.23 GB

     Check: negative core charge=   -0.000013

     Initial potential from superposition of free atoms

     starting charge     327.9330, renormalised to     328.0000
     Starting wfcs are  304 randomized atomic wfcs
     Checking if some PAW data can be deallocated... 

     total cpu time spent up to now is        3.0 secs

     Self-consistent Calculation

     iteration #  1     ecut=    60.00 Ry     beta= 0.20
     Davidson diagonalization with overlap
     ethr =  1.00E-02,  avg # of iterations =  2.1

     total cpu time spent up to now is        8.3 secs

     total energy              =   -3328.24546884 Ry
     estimated scf accuracy    <      16.27464546 Ry

     iteration #  2     ecut=    60.00 Ry     beta= 0.20
     Davidson diagonalization with overlap
     ethr =  4.96E-03,  avg # of iterations =  1.0

     total cpu time spent up to now is       12.5 secs

     total energy              =   -3324.48398680 Ry
     estimated scf accuracy    <       9.03281861 Ry

     iteration #  3     ecut=    60.00 Ry     beta= 0.20
     Davidson diagonalization with overlap
     ethr =  2.75E-03,  avg # of iterations =  2.2

     total cpu time spent up to now is       18.2 secs

     total energy              =   -3326.44071147 Ry
     estimated scf accuracy    <       2.05955101 Ry

     iteration #  4     ecut=    60.00 Ry     beta= 0.20
     Davidson diagonalization with overlap
     ethr =  6.28E-04,  avg # of iterations =  2.0

     total cpu time spent up to now is       22.9 secs

     total energy              =   -3326.39858532 Ry
     estimated scf accuracy    <       1.36976179 Ry

     iteration #  5     ecut=    60.00 Ry     beta= 0.20
     Davidson diagonalization with overlap
     ethr =  4.18E-04,  avg # of iterations =  1.6

     total cpu time spent up to now is       27.6 secs

     total energy              =   -3326.36377464 Ry
     estimated scf accuracy    <       0.52376477 Ry

     iteration #  6     ecut=    60.00 Ry     beta= 0.20
     Davidson diagonalization with overlap
     ethr =  1.60E-04,  avg # of iterations =  9.8

     total cpu time spent up to now is       34.4 secs

     total energy              =   -3326.35323302 Ry
     estimated scf accuracy    <       0.21046722 Ry

     iteration #  7     ecut=    60.00 Ry     beta= 0.20
     Davidson diagonalization with overlap
     ethr =  6.42E-05,  avg # of iterations = 11.8

     total cpu time spent up to now is       41.5 secs

     total energy              =   -3326.34288942 Ry
     estimated scf accuracy    <       0.11092134 Ry

     iteration #  8     ecut=    60.00 Ry     beta= 0.20
     Davidson diagonalization with overlap
     ethr =  3.38E-05,  avg # of iterations =  9.5

     total cpu time spent up to now is       48.6 secs

     total energy              =   -3326.34124773 Ry
     estimated scf accuracy    <       0.06630088 Ry

     iteration #  9     ecut=    60.00 Ry     beta= 0.20
     Davidson diagonalization with overlap
     ethr =  2.02E-05,  avg # of iterations =  4.1

     total cpu time spent up to now is       54.4 secs

     total energy              =   -3326.34242272 Ry
     estimated scf accuracy    <       0.01890651 Ry

     iteration # 10     ecut=    60.00 Ry     beta= 0.20
     Davidson diagonalization with overlap
     ethr =  5.76E-06,  avg # of iterations = 10.8

     total cpu time spent up to now is       62.6 secs

     total energy              =   -3326.34302961 Ry
     estimated scf accuracy    <       0.00700440 Ry

     iteration # 11     ecut=    60.00 Ry     beta= 0.20
     Davidson diagonalization with overlap
     ethr =  2.14E-06,  avg # of iterations =  6.1

     total cpu time spent up to now is       68.1 secs

     total energy              =   -3326.34325262 Ry
     estimated scf accuracy    <       0.00184798 Ry

     iteration # 12     ecut=    60.00 Ry     beta= 0.20
     Davidson diagonalization with overlap
     ethr =  5.63E-07,  avg # of iterations =  4.5

     total cpu time spent up to now is       73.5 secs

     total energy              =   -3326.34313448 Ry
     estimated scf accuracy    <       0.00199792 Ry

     iteration # 13     ecut=    60.00 Ry     beta= 0.20
     Davidson diagonalization with overlap
     ethr =  5.63E-07,  avg # of iterations =  2.0

     total cpu time spent up to now is       78.2 secs

     total energy              =   -3326.34314888 Ry
     estimated scf accuracy    <       0.00026997 Ry

     iteration # 14     ecut=    60.00 Ry     beta= 0.20
     Davidson diagonalization with overlap
     ethr =  8.23E-08,  avg # of iterations =  4.6

     total cpu time spent up to now is       84.5 secs

     total energy              =   -3326.34317763 Ry
     estimated scf accuracy    <       0.00015003 Ry

     iteration # 15     ecut=    60.00 Ry     beta= 0.20
     Davidson diagonalization with overlap
     ethr =  4.57E-08,  avg # of iterations =  2.0

     total cpu time spent up to now is       90.0 secs

     total energy              =   -3326.34318858 Ry
     estimated scf accuracy    <       0.00003659 Ry

     iteration # 16     ecut=    60.00 Ry     beta= 0.20
     Davidson diagonalization with overlap
     ethr =  1.12E-08,  avg # of iterations =  2.2

     total cpu time spent up to now is       95.4 secs

     total energy              =   -3326.34318733 Ry
     estimated scf accuracy    <       0.00001754 Ry

     iteration # 17     ecut=    60.00 Ry     beta= 0.20
     Davidson diagonalization with overlap
     ethr =  5.35E-09,  avg # of iterations =  3.5

     total cpu time spent up to now is      100.3 secs

     total energy              =   -3326.34318810 Ry
     estimated scf accuracy    <       0.00000393 Ry

     iteration # 18     ecut=    60.00 Ry     beta= 0.20
     Davidson diagonalization with overlap
     ethr =  1.20E-09,  avg # of iterations =  4.2

     total cpu time spent up to now is      105.5 secs

     total energy              =   -3326.34318763 Ry
     estimated scf accuracy    <       0.00000232 Ry

     iteration # 19     ecut=    60.00 Ry     beta= 0.20
     Davidson diagonalization with overlap
     ethr =  7.08E-10,  avg # of iterations =  2.0

     total cpu time spent up to now is      110.3 secs

     End of self-consistent calculation

          k = 0.0000 0.0000 0.0000 ( 29423 PWs)   bands (ev):

   -43.6892 -43.5375 -43.2882 -43.2355 -43.0931 -43.0651 -42.9711 -42.7987
   -20.1536 -20.0779 -20.0123 -19.9925 -19.9679 -19.8329 -19.8196 -19.7593
   -19.7359 -19.6792 -19.6481 -19.6168 -19.5923 -19.5227 -19.5038 -19.4799
   -19.4241 -19.3732 -19.3544 -19.3419 -19.2798 -19.1844 -19.1463 -19.1319
    -4.7675  -3.4243  -3.3743  -3.3107  -3.1743  -3.1451  -3.0161  -2.2573
    -2.2402  -2.1980  -2.1593  -2.1442  -2.1155  -2.0405  -1.9944  -1.9821
    -1.9406  -1.8802  -1.8605  -1.5842  -1.5537  -1.4015  -1.3515  -1.3017
    -1.2949  -1.2715  -1.0600  -1.0286  -0.9988  -0.9516  -0.9114  -0.8717
     4.1981   4.2578   4.2599   4.2813   5.4764   5.4891   5.5432   5.8770
     5.8988   5.9171   5.9199   6.2773   6.2947   6.3459   6.3670   6.5281
     6.5656   6.6715   6.7232   6.8152   6.8476   6.8778   6.9480   6.9564
     6.9769   6.9904   7.0121   7.0716   7.1591   7.2151   7.3460   7.7161
     7.7280   7.7684   7.8134   8.1406   8.1559   8.1715   8.2249   8.2564
     8.2811   8.3218   8.3590   8.4070   8.4198   8.4226   8.4686   8.4929
     8.5820   8.5923   8.6709   8.7458   8.8998   8.9238   9.1667   9.6003
     9.6927   9.7240   9.7502   9.7798   9.8191   9.8356   9.8505   9.9125
     9.9313   9.9511  10.0121  10.0167  10.0651  10.2866  10.3342  10.3496
    10.3998  10.4449  10.5044  10.5228  10.6183  10.6400  10.6691  10.6974
    10.7055  10.7568  10.7779  10.8481  10.8755  10.8861  10.8890  10.9346
    10.9492  10.9573  10.9888  11.1159  11.1456  12.1192  12.1496  12.1878
    13.3718  13.5321  13.6287  14.5001  14.5147  14.5807  14.6600  14.8168
    14.8412  15.3100  15.5132  15.7155  16.0466  16.0631  16.1904  16.2561
    16.3230  16.3414  16.3673  16.4088  16.4450  16.5060  16.5564  16.6158
    16.6287  16.7068  16.7317  16.8871  17.0336  17.3345  17.4090  17.4587
    17.5739  17.6634  17.8060  17.9559  18.1361

          k = 0.0000 0.0000-0.5000 ( 29350 PWs)   bands (ev):

   -43.6892 -43.5375 -43.2881 -43.2355 -43.0932 -43.0650 -42.9711 -42.7987
   -20.1536 -20.0779 -20.0123 -19.9925 -19.9679 -19.8330 -19.8194 -19.7579
   -19.7319 -19.6773 -19.6467 -19.6225 -19.5918 -19.5314 -19.5058 -19.4799
   -19.4168 -19.3706 -19.3544 -19.3465 -19.2782 -19.1843 -19.1476 -19.1307
    -4.4342  -4.2705  -3.1263  -3.0363  -2.9988  -2.9376  -2.8621  -2.8037
    -2.7589  -2.6164  -2.1243  -2.0193  -1.9575  -1.8873  -1.8791  -1.8404
    -1.7670  -1.7251  -1.6568  -1.6131  -1.4006  -1.3941  -1.3058  -1.2685
    -1.2503  -1.1927  -1.1656  -1.1471  -1.1230  -1.0970  -1.0273  -0.9789
     4.7259   4.8678   4.8954   4.9158   5.0123   5.0883   5.0988   5.2034
     5.6992   5.7065   5.8848   5.9401   6.0045   6.0080   6.0856   6.1067
     6.1632   6.2175   6.3453   6.4608   6.8718   6.9414   7.0154   7.0519
     7.0794   7.2369   7.2615   7.3741   7.4234   7.4826   7.5456   7.5637
     7.5797   7.6582   7.7543   7.7921   7.8909   7.9248   8.4476   8.4785
     8.6083   8.6895   8.8563   8.8592   8.9333   9.0867   9.1799   9.1989
     9.2435   9.2981   9.3285   9.3585   9.4154   9.4283   9.4488   9.4940
     9.5255   9.5363   9.5889   9.6152   9.6729   9.6793   9.7203   9.7298
     9.7817   9.8107   9.8336   9.9165   9.9809  10.0041  10.0421  10.0591
    10.1029  10.1472  10.1961  10.2479  10.2860  10.3301  10.3625  10.4398
    10.4930  10.5593  10.6672  10.6886  10.7192  10.7673  10.7816  10.8740
    10.8880  10.9311  11.0166  11.0733  11.4927  11.5085  11.6441  11.7343
    13.6810  14.2103  14.4226  14.4435  14.6155  14.7242  14.9061  14.9907
    15.1015  15.1543  15.2731  15.5115  15.5446  15.5827  15.8336  15.9692
    16.0826  16.2957  16.4159  16.5032  16.5321  16.5728  16.6089  16.6920
    16.8238  17.1974  17.3422  17.4338  17.5393  17.6079  17.6702  17.7028
    17.7952  17.7992  17.8936  17.9818  18.0076

          k = 0.0000-0.5000-0.5000 ( 29520 PWs)   bands (ev):

   -43.6892 -43.5375 -43.2881 -43.2356 -43.0932 -43.0650 -42.9712 -42.7987
   -20.1536 -20.0779 -20.0123 -19.9925 -19.9679 -19.8330 -19.8193 -19.7580
   -19.7319 -19.6776 -19.6467 -19.6222 -19.5919 -19.5311 -19.5060 -19.4798
   -19.4172 -19.3706 -19.3544 -19.3464 -19.2782 -19.1844 -19.1476 -19.1307
    -4.1666  -4.0109  -3.8766  -3.6838  -2.8036  -2.7938  -2.6795  -2.6333
    -2.5086  -2.4645  -2.3439  -2.2959  -1.9362  -1.9007  -1.7341  -1.7133
    -1.6881  -1.6398  -1.6301  -1.5698  -1.5054  -1.4365  -1.3695  -1.3285
    -1.3059  -1.2704  -1.2054  -1.1603  -1.0764  -1.0409  -0.9570  -0.9019
     4.7398   4.8311   4.9478   5.0260   5.1460   5.2866   5.4265   5.5157
     5.7385   5.7971   5.8609   5.8779   5.9920   6.0032   6.0420   6.0800
     6.1275   6.1755   6.3373   6.3771   6.4860   6.5148   6.6315   6.6857
     6.7567   6.8559   6.8795   6.9980   7.0941   7.2496   7.6982   7.7785
     7.9582   8.2214   8.2415   8.3462   8.3926   8.4779   8.5142   8.5386
     8.5971   8.6814   8.6929   8.7217   8.7838   8.9600   8.9780   9.0022
     9.0166   9.1115   9.1392   9.1757   9.2591   9.2708   9.3195   9.3390
     9.4749   9.4961   9.6369   9.6518   9.7367   9.7608   9.8013   9.8252
     9.8380   9.8527   9.9314   9.9672   9.9978  10.0461  10.1125  10.1487
    10.1717  10.2719  10.3244  10.3693  10.3956  10.4134  10.4334  10.4408
    10.5238  10.5850  10.6469  10.6531  10.6670  10.7858  10.8078  10.8858
    10.9396  10.9792  11.0190  11.2780  11.3401  11.4263  11.6214  11.7321
    14.3109  14.4267  14.4398  14.6068  14.6467  14.6821  14.9154  14.9576
    14.9786  15.0436  15.2896  15.4241  15.5240  15.6017  15.7188  15.9187
    15.9881  16.1349  16.2119  16.3101  16.3748  16.4160  16.5380  16.7031
    17.0490  17.3985  17.5336  17.5767  17.6520  17.7335  17.8141  17.8841
    17.9761  18.0417  18.1338  18.2530  18.2932

          k =-0.5000-0.5000-0.5000 ( 29464 PWs)   bands (ev):

   -43.6892 -43.5375 -43.2881 -43.2356 -43.0932 -43.0650 -42.9711 -42.7987
   -20.1536 -20.0779 -20.0123 -19.9925 -19.9679 -19.8316 -19.8194 -19.7579
   -19.7319 -19.6776 -19.6471 -19.6220 -19.5919 -19.5312 -19.5076 -19.4800
   -19.4172 -19.3706 -19.3543 -19.3464 -19.2781 -19.1835 -19.1476 -19.1310
    -3.8626  -3.7584  -3.6995  -3.6479  -3.5274  -3.4670  -3.2302  -2.9993
    -1.9377  -1.9312  -1.8895  -1.7991  -1.7533  -1.7047  -1.6925  -1.6530
    -1.6424  -1.6198  -1.6075  -1.5556  -1.5190  -1.4908  -1.4387  -1.4214
    -1.3779  -1.3570  -1.3211  -1.2554  -1.2329  -1.1813  -1.0622  -1.0285
     5.1590   5.1920   5.2390   5.2748   5.3078   5.3634   5.4031   5.4674
     5.5002   5.5329   5.5527   5.5658   5.5901   5.6300   5.7458   5.8300
     5.8929   6.0248   6.2143   6.3460   6.4383   6.6247   6.8016   6.8347
     7.5492   7.5922   7.6425   7.7075   7.7747   7.8063   7.8245   7.8447
     7.8955   7.9177   7.9965   8.0400   8.1482   8.2000   8.2474   8.2736
     8.3842   8.4286   8.4778   8.5255   8.5738   8.5952   8.6221   8.6861
     8.7014   8.7405   8.7869   8.8521   8.9091   9.0293   9.2030   9.2229
     9.4161   9.5166   9.5708   9.6295   9.6959   9.7353   9.7758   9.8330
     9.8398   9.9095   9.9192   9.9767  10.0528  10.1018  10.1303  10.1800
    10.2600  10.3139  10.3839  10.4334  10.4587  10.5161  10.6239  10.6447
    10.8008  10.8727  10.9339  10.9810  11.0490  11.0802  11.1475  11.1765
    11.2617  11.3005  11.3207  11.3494  11.3891  11.4223  11.4714  11.4819
    14.4661  14.5145  14.5705  14.5996  14.6225  14.7359  14.8377  14.9425
    14.9610  15.0229  15.1051  15.2266  15.3427  15.4238  15.4606  15.6365
    15.7333  15.9380  16.0512  16.3533  16.3937  16.4459  16.4466  16.5953
    17.7675  17.7880  17.8516  18.0090  18.0361  18.1324  18.1431  18.2485
    18.2699  18.3238  18.3428  18.3927  18.4267

          k =-0.5000 0.0000 0.0000 ( 29350 PWs)   bands (ev):

   -43.6892 -43.5375 -43.2882 -43.2355 -43.0931 -43.0651 -42.9711 -42.7987
   -20.1536 -20.0779 -20.0123 -19.9925 -19.9679 -19.8315 -19.8196 -19.7593
   -19.7359 -19.6793 -19.6485 -19.6165 -19.5924 -19.5229 -19.5051 -19.4801
   -19.4241 -19.3732 -19.3544 -19.3419 -19.2798 -19.1836 -19.1463 -19.1322
    -4.4603  -4.2359  -3.1665  -3.0321  -2.9777  -2.9275  -2.8733  -2.7917
    -2.6565  -2.6355  -2.1406  -2.0388  -1.9985  -1.9844  -1.9621  -1.8473
    -1.6921  -1.6849  -1.6690  -1.6412  -1.4245  -1.3904  -1.3773  -1.3547
    -1.2778  -1.1857  -1.1296  -1.1171  -1.0484  -1.0154  -0.9599  -0.9476
     4.7550   4.7612   4.8635   4.9269   4.9547   5.0120   5.3169   5.3547
     5.6663   5.6869   5.8760   5.9468   5.9807   5.9953   6.0803   6.2194
     6.3164   6.4121   6.4574   6.5980   6.7517   6.8247   6.8984   7.0305
     7.0741   7.0972   7.1808   7.2317   7.3205   7.3333   7.4461   7.5557
     7.6538   7.6742   7.7763   7.8823   7.9018   7.9233   8.4265   8.5992
     8.6109   8.6760   8.6981   8.7392   8.8627   8.8751   9.0063   9.1833
     9.2433   9.2551   9.2899   9.3258   9.3463   9.3679   9.4061   9.4290
     9.4738   9.4876   9.5426   9.5965   9.6658   9.7026   9.7830   9.7893
     9.8129   9.8374   9.9171  10.0013  10.0314  10.0402  10.0647  10.0901
    10.1022  10.2079  10.2476  10.2598  10.3676  10.4065  10.4482  10.5421
    10.5649  10.5788  10.6917  10.7024  10.7806  10.8388  10.8540  10.8792
    10.9712  11.0202  11.0415  11.0699  11.4493  11.4597  11.7026  11.8163
    13.5725  14.0605  14.3356  14.4383  14.7256  14.9550  14.9764  15.0409
    15.2101  15.2614  15.3198  15.3964  15.5177  15.5672  16.0957  16.1376
    16.2072  16.2099  16.2619  16.3508  16.4145  16.5042  16.5824  16.6091
    16.7880  17.0364  17.2611  17.3465  17.5016  17.5544  17.5747  17.6422
    17.7085  17.7678  17.8841  17.9407  18.0091

          k = 0.0000-0.5000 0.0000 ( 29350 PWs)   bands (ev):

   -43.6892 -43.5375 -43.2882 -43.2355 -43.0931 -43.0651 -42.9711 -42.7987
   -20.1536 -20.0779 -20.0123 -19.9925 -19.9679 -19.8329 -19.8196 -19.7593
   -19.7359 -19.6792 -19.6481 -19.6168 -19.5924 -19.5231 -19.5034 -19.4799
   -19.4240 -19.3732 -19.3544 -19.3420 -19.2798 -19.1844 -19.1463 -19.1319
    -4.4810  -4.1963  -3.1768  -3.0324  -3.0128  -2.9299  -2.8473  -2.7655
    -2.7124  -2.5959  -2.1664  -2.1155  -1.9414  -1.8958  -1.8743  -1.8676
    -1.8511  -1.8210  -1.6538  -1.6145  -1.4744  -1.4559  -1.3295  -1.3036
    -1.2321  -1.2188  -1.1554  -1.0546  -1.0292  -1.0001  -0.9064  -0.9014
     4.6741   4.7121   4.8236   4.8250   5.1545   5.1596   5.2631   5.5340
     5.5742   5.6217   5.8221   6.0067   6.0608   6.0982   6.2014   6.2315
     6.3126   6.3278   6.4962   6.6870   6.7155   6.7692   6.8031   6.9127
     6.9303   7.0118   7.1016   7.3378   7.4035   7.4305   7.5451   7.5958
     7.6365   7.7356   7.7806   7.8285   7.8409   7.9969   8.2778   8.3576
     8.5997   8.6285   8.6739   8.7087   8.8321   8.8541   8.8843   8.9249
     8.9963   9.1858   9.2533   9.2838   9.3232   9.3584   9.3917   9.4339
     9.4627   9.5147   9.5579   9.5934   9.6061   9.6479   9.7066   9.7473
     9.7892   9.8618   9.9090   9.9557   9.9713  10.0447  10.0694  10.1957
    10.2422  10.2497  10.2750  10.4054  10.5078  10.5494  10.5995  10.6207
    10.6724  10.7092  10.7425  10.7556  10.8441  10.8836  10.9116  10.9391
    10.9894  11.0623  11.0904  11.1240  11.4278  11.4885  11.7652  11.8579
    13.3886  14.1755  14.2964  14.4046  14.7530  14.8394  14.8845  14.9720
    15.0694  15.1207  15.4661  15.7216  15.8901  15.9867  16.0328  16.1333
    16.1564  16.2210  16.2383  16.3149  16.3842  16.3922  16.4632  16.6015
    16.7050  16.8876  16.9667  17.2117  17.3219  17.4770  17.5942  17.6308
    17.6970  17.7945  17.8576  17.9815  18.0973

          k =-0.5000 0.0000 0.5000 ( 29520 PWs)   bands (ev):

   -43.6892 -43.5375 -43.2881 -43.2356 -43.0932 -43.0650 -42.9712 -42.7987
   -20.1536 -20.0779 -20.0123 -19.9925 -19.9679 -19.8316 -19.8194 -19.7579
   -19.7319 -19.6774 -19.6471 -19.6223 -19.5919 -19.5314 -19.5074 -19.4800
   -19.4168 -19.3706 -19.3544 -19.3465 -19.2782 -19.1835 -19.1476 -19.1310
    -4.1437  -3.9938  -3.9191  -3.7265  -2.7905  -2.7591  -2.6765  -2.6034
    -2.5420  -2.4090  -2.4029  -2.2176  -1.9245  -1.8070  -1.7691  -1.7441
    -1.6856  -1.6673  -1.6166  -1.5733  -1.4868  -1.4611  -1.3978  -1.3406
    -1.2949  -1.2733  -1.2231  -1.1248  -1.0871  -1.0448  -0.9812  -0.9724
     4.8421   4.9243   4.9333   4.9659   5.2041   5.2730   5.3192   5.3407
     5.6815   5.7169   5.8156   5.8536   5.8990   5.9898   6.0415   6.0597
     6.1278   6.1869   6.3196   6.4061   6.4701   6.5216   6.5722   6.7385
     6.8679   6.8832   7.0321   7.0905   7.1924   7.3956   7.6180   7.7918
     8.0224   8.0880   8.3405   8.4276   8.4489   8.5061   8.5243   8.5679
     8.6175   8.6437   8.7016   8.7180   8.9669   9.0261   9.0671   9.1087
     9.1555   9.2093   9.2256   9.2412   9.2811   9.3159   9.3486   9.4355
     9.4523   9.4974   9.5185   9.5530   9.6562   9.7002   9.7431   9.7768
     9.7849   9.8142   9.8565   9.9070   9.9634  10.0164  10.0601  10.1033
    10.1754  10.2105  10.2303  10.2743  10.3069  10.3717  10.4735  10.4816
    10.5198  10.5555  10.5754  10.5782  10.6947  10.7673  10.8195  10.8627
    10.8947  10.9363  11.0138  11.1270  11.3537  11.4806  11.5944  11.6985
    14.4356  14.5026  14.5591  14.6207  14.6571  14.7458  14.9071  14.9485
    15.0291  15.0936  15.1690  15.3273  15.3707  15.5870  15.6027  15.6467
    15.8509  16.0969  16.1839  16.3703  16.5322  16.5567  16.5879  16.6138
    17.2347  17.3558  17.5181  17.5465  17.6011  17.7092  17.7546  17.8391
    17.8670  18.1176  18.1839  18.2548  18.3445

          k =-0.5000 0.5000 0.0000 ( 29520 PWs)   bands (ev):

   -43.6892 -43.5375 -43.2882 -43.2355 -43.0931 -43.0651 -42.9711 -42.7987
   -20.1536 -20.0779 -20.0123 -19.9925 -19.9679 -19.8315 -19.8196 -19.7592
   -19.7359 -19.6793 -19.6484 -19.6166 -19.5925 -19.5234 -19.5047 -19.4802
   -19.4241 -19.3733 -19.3544 -19.3420 -19.2798 -19.1836 -19.1463 -19.1322
    -4.1584  -4.0170  -3.9623  -3.5370  -2.7932  -2.7841  -2.6562  -2.6290
    -2.6142  -2.5860  -2.2645  -2.2201  -1.9573  -1.8675  -1.8396  -1.8103
    -1.6336  -1.6228  -1.5858  -1.5690  -1.5203  -1.4901  -1.4707  -1.4312
    -1.2911  -1.2310  -1.1955  -1.1048  -1.0001  -0.9714  -0.9156  -0.8786
     4.7671   4.7867   4.9986   5.0247   5.1085   5.1791   5.5483   5.6873
     5.7706   5.9184   5.9528   5.9610   5.9779   5.9999   6.0348   6.0805
     6.1024   6.1358   6.1492   6.2871   6.3162   6.3846   6.5223   6.8326
     6.9446   6.9907   7.0424   7.1282   7.1903   7.3319   7.3800   7.5766
     7.8312   7.8987   8.1883   8.3161   8.3720   8.3773   8.5216   8.5438
     8.6695   8.7072   8.7265   8.7369   8.7720   8.7959   8.9165   8.9175
     8.9632   8.9905   9.0530   9.1605   9.1813   9.2454   9.3127   9.4016
     9.4899   9.5513   9.6064   9.6773   9.7013   9.7154   9.8080   9.8534
     9.8736   9.9378   9.9966  10.0493  10.0793  10.1145  10.1403  10.2335
    10.2431  10.2611  10.3215  10.3443  10.3705  10.4183  10.4511  10.5213
    10.5940  10.6107  10.6215  10.6768  10.7755  10.8082  10.8642  10.9395
    10.9567  10.9743  10.9934  11.2066  11.4747  11.5858  11.6482  11.6696
    14.1051  14.1872  14.3831  14.7230  14.8073  14.9024  15.0096  15.0490
    15.1192  15.2160  15.2628  15.3227  15.3411  15.6206  15.8723  16.0430
    16.0526  16.1629  16.1976  16.2325  16.2659  16.3705  16.4294  16.4990
    16.8561  17.3959  17.4270  17.5257  17.7223  17.7519  17.9357  18.0309
    18.0561  18.1285  18.2315  18.2648  18.3323

     the Fermi energy is    14.6062 ev

!    total energy              =   -3326.34318733 Ry
     total all-electron energy =    -28826.714734 Ry
     estimated scf accuracy    <       0.00000062 Ry
     smearing contrib. (-TS)   =      -0.00350904 Ry
     internal energy E=F+TS    =   -3326.33967828 Ry

     The total energy is F=E-TS. E is the sum of the following terms:
     one-electron contribution =    -494.28877533 Ry
     hartree contribution      =     476.73575746 Ry
     xc contribution           =    -403.09767240 Ry
     ewald contribution        =   -1296.09842915 Ry
     one-center paw contrib.   =   -1609.59055886 Ry

     convergence has been achieved in  19 iterations

     Forces acting on atoms (cartesian axes, Ry/au):

     atom    1 type  1   force =    -0.00292307    0.00658202   -0.00574008
     atom    2 type  2   force =    -0.00363780   -0.00305878    0.00088155
     atom    3 type  1   force =    -0.00409945    0.00400356   -0.00352390
     atom    4 type  2   force =    -0.00179378   -0.00388890   -0.05182821
     atom    5 type  1   force =     0.00825567    0.00031103   -0.00322073
     atom    6 type  2   force =     0.00676489    0.05128476    0.00047914
     atom    7 type  1   force =    -0.00125558    0.00025088   -0.00068289
     atom    8 type  2   force =     0.00171104   -0.00210222    0.00112984
     atom    9 type  1   force =    -0.00528093    0.00016276    0.00597237
     atom   10 type  2   force =    -0.01045709   -0.05634623   -0.00046611
     atom   11 type  1   force =    -0.00437655    0.00220607    0.00329859
     atom   12 type  2   force =    -0.00321505   -0.00297834    0.05227107
     atom   13 type  1   force =    -0.00037607   -0.00110021    0.00299196
     atom   14 type  2   force =     0.00519818    0.00265761    0.00036360
     atom   15 type  3   force =     0.05137009    0.03808750    0.00326714
     atom   16 type  2   force =     0.00755824   -0.01221808   -0.00135861
     atom   17 type  1   force =    -0.00133575   -0.00627136   -0.00435606
     atom   18 type  2   force =    -0.06353748    0.00285096    0.00289279
     atom   19 type  3   force =    -0.03440023   -0.03398917    0.00349341
     atom   20 type  2   force =     0.04857673    0.00449741   -0.00160855
     atom   21 type  1   force =     0.00414222   -0.00042268    0.00017430
     atom   22 type  2   force =     0.07435369   -0.05174676   -0.00157091
     atom   23 type  1   force =     0.00299887   -0.00076335   -0.00265258
     atom   24 type  2   force =     0.00232480    0.00278282   -0.04361338
     atom   25 type  1   force =    -0.00712684   -0.00076808    0.00490028
     atom   26 type  2   force =    -0.08237472    0.05972770   -0.00204363
     atom   27 type  1   force =    -0.00206450   -0.00219467   -0.00249939
     atom   28 type  2   force =    -0.05685097    0.00704698    0.00125850
     atom   29 type  1   force =     0.00447950    0.00181557   -0.00064202
     atom   30 type  2   force =     0.07245939   -0.00468671    0.00199266
     atom   31 type  1   force =     0.00643712   -0.00471447    0.00284383
     atom   32 type  2   force =     0.00252603    0.00546339    0.04195078
     atom   33 type  1   force =     0.00286802    0.00195695    0.00277200
     atom   34 type  2   force =     0.00381117   -0.00521665    0.00163722
     atom   35 type  1   force =     0.00366998   -0.00131640    0.00266578
     atom   36 type  2   force =    -0.00168293   -0.06671563   -0.06747403
     atom   37 type  1   force =    -0.00756649    0.00154132   -0.00008394
     atom   38 type  2   force =    -0.00578471    0.00614422   -0.00087701
     atom   39 type  1   force =     0.00063869   -0.00217931   -0.00217592
     atom   40 type  2   force =    -0.00115927   -0.05931746    0.00823735
     atom   41 type  1   force =     0.00515675   -0.00000408   -0.00264070
     atom   42 type  2   force =     0.01130735   -0.06950060   -0.00186001
     atom   43 type  1   force =     0.00578393    0.00768598   -0.00309011
     atom   44 type  2   force =     0.00434536   -0.07029087    0.06922399
     atom   45 type  1   force =    -0.00017729    0.00202403   -0.00029748
     atom   46 type  2   force =    -0.00725297    0.06429215    0.00038768
     atom   47 type  3   force =    -0.04337763    0.08930649    0.00660555
     atom   48 type  2   force =    -0.00552062   -0.08069102   -0.00711732
     atom   49 type  3   force =     0.04669000    0.02207055   -0.05068180
     atom   50 type  2   force =     0.07295264    0.00965252    0.00630386
     atom   51 type  1   force =     0.00331838    0.00083494    0.00522560
     atom   52 type  2   force =    -0.05216329    0.06815672   -0.00896531
     atom   53 type  3   force =    -0.02277237    0.00015533    0.04817519
     atom   54 type  2   force =    -0.08139622   -0.01181156   -0.01016924
     atom   55 type  1   force =    -0.00313245    0.00197679   -0.00170700
     atom   56 type  2   force =    -0.00024439    0.06303772    0.06473105
     atom   57 type  3   force =     0.06136187   -0.02404300    0.05045022
     atom   58 type  2   force =     0.08605074    0.07242111   -0.00625166
     atom   59 type  3   force =     0.02278837   -0.09149971   -0.01190184
     atom   60 type  2   force =     0.05644246    0.06938194    0.00825069
     atom   61 type  3   force =    -0.08300032   -0.00803662   -0.05034431
     atom   62 type  2   force =    -0.07658210   -0.06578636    0.00884931
     atom   63 type  1   force =    -0.00703428   -0.00705251    0.00250158
     atom   64 type  2   force =    -0.00238899    0.08034202   -0.06473412

     Total force =     0.455662     Total SCF correction =     0.002931


     Computing stress (Cartesian axis) and pressure

          total   stress  (Ry/bohr**3)                   (kbar)     P=       52.14
   0.00035415  -0.00001500   0.00000812           52.10       -2.21        1.19
  -0.00001500   0.00038364  -0.00001533           -2.21       56.43       -2.26
   0.00000812  -0.00001533   0.00032556            1.19       -2.26       47.89


     BFGS Geometry Optimization
     Energy error            =      0.0E+00 Ry
     Gradient error          =      9.1E-02 Ry/Bohr

     number of scf cycles    =   1
     number of bfgs steps    =   0

     energy             new  =   -3326.3431873257 Ry

     new trust radius        =       0.1126438190 bohr
     new conv_thr            =       0.0000010000 Ry


ATOMIC_POSITIONS (angstrom)
Al           -0.0015468221        0.0034830529       -0.0030375175
N             2.0543249568       -0.0016186393        0.0004664955
Al           -0.0021693348        2.0583685943        2.0543852315
N             2.0553007731        2.0541920814        2.0288236925
Al            2.0606187118        0.0001645919        2.0545456619
N             0.0035798247        0.0271387243        2.0565035497
Al            2.0555855751        2.0563827596       -0.0003613714
N             0.0009054447        2.0551375553        0.0005978847
Al           -0.0027945499        0.0000861290        4.1156604396
N             2.0507163450       -0.0298171419        4.1122533458
Al           -0.0023159704        2.0574173996        6.1704955397
N             2.0545486669        2.0546739288        6.1964106582
Al            2.0560509913       -0.0005822036        6.1703332757
N             0.0027507603        0.0014063470        6.1689424110
Ti            2.0834338826        2.0764050385        4.1142288947
N             0.0039996496        2.0497844708        4.1117810556
Al           -0.0007068490        4.1091813387       -0.0023051278
N             2.0226274135        4.1140086607        0.0015307960
Ti           -0.0182038182        6.1507637060        2.0580986306
N             2.0819556966        6.1711299285        2.0553987925
Al            2.0584419694        4.1122763268        2.0563422372
N             0.0393462795        4.0851167921        2.0554187110
Al            2.0578369322        6.1683460549       -0.0014036844
N             0.0012302287        6.1702226031       -0.0230792064
Al           -0.0037713597        4.1120935497        4.1150931152
N             2.0126591771        4.1441065388        4.1114185552
Al           -0.0010924848        6.1675886297        6.1674273778
N             2.0261657619        6.1724791036        6.1694159691
Al            2.0586204493        4.1134607563        6.1684102579
N             0.0383438573        4.1100199023        6.1698044688
Al            2.0596563767        6.1662552094        4.1140048901
N             0.0013367198        6.1716410998        4.1346993954
Al            4.1140176883        0.0010355721        0.0014668773
N             6.1707667862       -0.0027605325        0.0008663782
Al            4.1144420697        2.0555533928        2.0576606724
N             6.1678594317        2.0209456094        2.0205442792
Al            6.1647459838        0.0008156299        2.0562055795
N             4.1094388659        0.0032513824        2.0557859045
Al            6.1690879800        2.0550967572       -0.0011514449
N             4.1118865405        2.0248605533        0.0043590171
Al            4.1152288360       -0.0000021604        4.1111026007
N             6.1747335903       -0.0367781334        4.1115157257
Al            4.1155607258        2.0603172438        6.1671147855
N             6.1710494670        2.0190536727        6.2053817605
Al            6.1686561818        0.0010710713        6.1685925782
N             4.1086618916        0.0340219413        6.1689551520
Ti            6.1457955487        2.1035089593        4.1159955045
N             4.1095786118        2.0135501528        4.1087336759
Ti            4.1372072828        4.1241792345       -0.0268196511
N             6.2073548740        4.1176078950        0.0033358614
Al            4.1142560091        6.1691918321        2.0590152666
N             6.1411463742        6.2048169826        2.0515057617
Ti            6.1566993813        4.1125821997        2.0817432138
N             4.0694269767        4.1062495892        2.0508686693
Al            6.1670923791        6.1697960711       -0.0009033033
N             4.1123706757        6.2021081258        0.0342541939
Ti            4.1449713053        4.0997769927        4.1391971065
N             6.2142860906        4.1508235997        4.1091917625
Ti            4.1245590867        6.1203304369        6.1624518178
N             6.1986180642        6.2054653395        6.1731160781
Ti            6.1248281243        4.1082472023        6.1421089396
N             4.0719745004        4.0776873567        6.1734328538
Al            6.1650276198        6.1650179738        4.1138237791
N             4.1112358015        6.2112651677        4.0782441784



     Writing config-only to output data dir ../output/relax_sqs_all_x/tmp_x075/TiAlN_x075_relax.save/
     NEW-OLD atomic charge density approx. for the potential

     Check: negative core charge=   -0.000013

     total cpu time spent up to now is      125.8 secs

     Self-consistent Calculation

     iteration #  1     ecut=    60.00 Ry     beta= 0.20
     Davidson diagonalization with overlap
     c_bands:  1 eigenvalues not converged
     c_bands:  4 eigenvalues not converged
     ethr =  1.00E-06,  avg # of iterations = 20.0

     total cpu time spent up to now is      142.6 secs

     total energy              =   -3326.51012940 Ry
     estimated scf accuracy    <       0.12336010 Ry

     iteration #  2     ecut=    60.00 Ry     beta= 0.20
     Davidson diagonalization with overlap
     ethr =  3.76E-05,  avg # of iterations =  1.1

     total cpu time spent up to now is      147.1 secs

     total energy              =   -3326.49831120 Ry
     estimated scf accuracy    <       0.06174806 Ry

     iteration #  3     ecut=    60.00 Ry     beta= 0.20
     Davidson diagonalization with overlap
     ethr =  1.88E-05,  avg # of iterations =  2.0

     total cpu time spent up to now is      151.8 secs

     total energy              =   -3326.49315901 Ry
     estimated scf accuracy    <       0.02772432 Ry

     iteration #  4     ecut=    60.00 Ry     beta= 0.20
     Davidson diagonalization with overlap
     ethr =  8.45E-06,  avg # of iterations =  4.5

     total cpu time spent up to now is      157.3 secs

     total energy              =   -3326.49382620 Ry
     estimated scf accuracy    <       0.00766763 Ry

     iteration #  5     ecut=    60.00 Ry     beta= 0.20
     Davidson diagonalization with overlap
     ethr =  2.34E-06,  avg # of iterations = 14.0

     total cpu time spent up to now is      166.2 secs

     total energy              =   -3326.49447996 Ry
     estimated scf accuracy    <       0.00203518 Ry

     iteration #  6     ecut=    60.00 Ry     beta= 0.20
     Davidson diagonalization with overlap
     ethr =  6.20E-07,  avg # of iterations =  5.1

     total cpu time spent up to now is      171.9 secs

     total energy              =   -3326.49420499 Ry
     estimated scf accuracy    <       0.00099930 Ry

     iteration #  7     ecut=    60.00 Ry     beta= 0.20
     Davidson diagonalization with overlap
     ethr =  3.05E-07,  avg # of iterations =  2.0

     total cpu time spent up to now is      176.8 secs

     total energy              =   -3326.49428469 Ry
     estimated scf accuracy    <       0.00027813 Ry

     iteration #  8     ecut=    60.00 Ry     beta= 0.20
     Davidson diagonalization with overlap
     ethr =  8.48E-08,  avg # of iterations =  2.5

     total cpu time spent up to now is      181.7 secs

     total energy              =   -3326.49426410 Ry
     estimated scf accuracy    <       0.00014522 Ry

     iteration #  9     ecut=    60.00 Ry     beta= 0.20
     Davidson diagonalization with overlap
     ethr =  4.43E-08,  avg # of iterations =  2.6

     total cpu time spent up to now is      187.1 secs

     total energy              =   -3326.49426166 Ry
     estimated scf accuracy    <       0.00008487 Ry

     iteration # 10     ecut=    60.00 Ry     beta= 0.20
     Davidson diagonalization with overlap
     ethr =  2.59E-08,  avg # of iterations =  2.0

     total cpu time spent up to now is      191.8 secs

     total energy              =   -3326.49426463 Ry
     estimated scf accuracy    <       0.00001853 Ry

     iteration # 11     ecut=    60.00 Ry     beta= 0.20
     Davidson diagonalization with overlap
     ethr =  5.65E-09,  avg # of iterations =  4.2

     total cpu time spent up to now is      197.2 secs

     total energy              =   -3326.49426548 Ry
     estimated scf accuracy    <       0.00000475 Ry

     iteration # 12     ecut=    60.00 Ry     beta= 0.20
     Davidson diagonalization with overlap
     ethr =  1.45E-09,  avg # of iterations =  3.8

     total cpu time spent up to now is      202.7 secs

     total energy              =   -3326.49426617 Ry
     estimated scf accuracy    <       0.00000124 Ry

     iteration # 13     ecut=    60.00 Ry     beta= 0.20
     Davidson diagonalization with overlap
     ethr =  3.77E-10,  avg # of iterations =  4.4

     total cpu time spent up to now is      207.8 secs

     End of self-consistent calculation

          k = 0.0000 0.0000 0.0000 ( 29423 PWs)   bands (ev):

   -44.0209 -43.8897 -43.5739 -43.4593 -43.3734 -43.3020 -43.0947 -42.9216
   -20.4745 -20.3543 -20.3232 -20.3125 -20.2608 -20.1792 -20.0496 -20.0238
   -19.9697 -19.9289 -19.8756 -19.8428 -19.7975 -19.7539 -19.7470 -19.7229
   -19.6694 -19.5853 -19.4888 -19.4831 -19.4039 -19.3039 -19.2699 -19.2062
    -4.7698  -3.4459  -3.3994  -3.3222  -3.1896  -3.1536  -3.0231  -2.2785
    -2.2509  -2.2246  -2.2092  -2.1288  -2.0970  -2.0697  -1.9873  -1.9537
    -1.9303  -1.8987  -1.8852  -1.6863  -1.6541  -1.5407  -1.5078  -1.3371
    -1.2920  -1.2651  -1.0975  -1.0489  -0.9980  -0.9291  -0.8948  -0.8117
     4.2252   4.2845   4.3309   4.3343   5.4970   5.5128   5.5572   5.9307
     5.9385   5.9865   5.9939   6.2676   6.2860   6.3608   6.3924   6.5042
     6.5600   6.6976   6.7202   6.8140   6.8487   6.8842   6.9042   6.9427
     6.9495   6.9890   7.0098   7.0528   7.1748   7.2045   7.3269   7.7217
     7.7241   7.7838   7.7981   8.0286   8.0487   8.0873   8.1935   8.2563
     8.2883   8.3208   8.3595   8.3827   8.4130   8.4247   8.4475   8.4729
     8.5175   8.5548   8.6497   8.8038   8.8522   8.9237   9.1605   9.6067
     9.6780   9.6908   9.7289   9.7639   9.7727   9.8348   9.8614   9.9344
     9.9553   9.9901   9.9984  10.0632  10.0740  10.3223  10.3344  10.3844
    10.4699  10.5260  10.5366  10.5971  10.6278  10.6302  10.6866  10.7043
    10.7321  10.7842  10.8201  10.8499  10.8649  10.8985  10.9454  10.9553
    10.9964  11.0262  11.0465  11.1033  11.1220  12.0960  12.1224  12.1247
    12.9764  13.1425  13.2622  14.1798  14.1974  14.2917  14.3542  14.5631
    14.5846  15.0074  15.2547  15.4280  15.7763  15.8204  15.9697  16.0197
    16.0769  16.0965  16.1447  16.2148  16.3179  16.3759  16.4139  16.4576
    16.5656  16.7048  16.7275  16.7653  16.8647  17.1856  17.2133  17.3255
    17.4976  17.5465  17.5936  17.7405  17.9180

          k = 0.0000 0.0000-0.5000 ( 29350 PWs)   bands (ev):

   -44.0209 -43.8897 -43.5738 -43.4594 -43.3734 -43.3020 -43.0947 -42.9216
   -20.4745 -20.3543 -20.3232 -20.3125 -20.2608 -20.1792 -20.0495 -20.0203
   -19.9689 -19.9287 -19.8703 -19.8515 -19.7970 -19.7574 -19.7496 -19.7260
   -19.6604 -19.5879 -19.4883 -19.4831 -19.4035 -19.3038 -19.2707 -19.2056
    -4.4284  -4.2842  -3.1508  -3.0743  -3.0132  -2.9562  -2.8989  -2.7834
    -2.7307  -2.6259  -2.1624  -2.0645  -1.9986  -1.9285  -1.9059  -1.8707
    -1.7921  -1.7434  -1.6773  -1.6520  -1.4599  -1.4064  -1.3696  -1.3546
    -1.2865  -1.2431  -1.2110  -1.1624  -1.1006  -1.0438  -0.9857  -0.9748
     4.7658   4.8818   4.9098   4.9755   5.0289   5.0955   5.1757   5.2385
     5.7207   5.7322   5.9197   5.9771   6.0248   6.0410   6.1125   6.1329
     6.1712   6.2200   6.3622   6.5031   6.8709   6.9556   7.0233   7.0565
     7.1298   7.2384   7.2930   7.3292   7.3917   7.4614   7.4963   7.5632
     7.5673   7.6277   7.6925   7.7468   7.8114   7.8495   8.4922   8.5207
     8.5465   8.6735   8.7949   8.8061   8.9281   8.9818   9.0788   9.1490
     9.1866   9.1983   9.2830   9.3450   9.4175   9.4295   9.4490   9.4808
     9.5105   9.5450   9.5822   9.5931   9.6101   9.6468   9.6667   9.7174
     9.7512   9.8031   9.8588   9.9173   9.9860  10.0172  10.0774  10.0947
    10.1196  10.1663  10.2237  10.2947  10.3468  10.3705  10.4378  10.5202
    10.5720  10.6041  10.6369  10.7354  10.8049  10.8318  10.8423  10.9348
    10.9532  10.9749  11.0413  11.0535  11.5291  11.5525  11.5895  11.6653
    13.3160  13.8978  13.9972  14.0407  14.3315  14.4072  14.5816  14.7211
    14.7829  14.9028  14.9995  15.2280  15.3345  15.3896  15.6956  15.7585
    15.8085  16.0656  16.2843  16.3483  16.3808  16.4354  16.4961  16.5800
    16.5994  16.9540  17.1093  17.1434  17.2891  17.3076  17.4887  17.5214
    17.6746  17.6841  17.8048  17.8893  17.9215

          k = 0.0000-0.5000-0.5000 ( 29520 PWs)   bands (ev):

   -44.0209 -43.8897 -43.5739 -43.4594 -43.3734 -43.3020 -43.0947 -42.9216
   -20.4746 -20.3543 -20.3232 -20.3125 -20.2608 -20.1792 -20.0496 -20.0203
   -19.9690 -19.9288 -19.8703 -19.8513 -19.7971 -19.7574 -19.7495 -19.7263
   -19.6604 -19.5880 -19.4882 -19.4831 -19.4035 -19.3038 -19.2707 -19.2056
    -4.1455  -4.0053  -3.9008  -3.7431  -2.7750  -2.7606  -2.6650  -2.6258
    -2.5509  -2.5270  -2.4264  -2.3945  -1.9313  -1.9125  -1.8492  -1.7576
    -1.7148  -1.6651  -1.6106  -1.6043  -1.5100  -1.3821  -1.3574  -1.3535
    -1.3111  -1.2714  -1.2250  -1.1933  -1.1781  -1.1000  -0.9542  -0.9093
     4.7717   4.8460   4.9687   5.0448   5.1746   5.3033   5.4822   5.5872
     5.7835   5.8271   5.9084   5.9257   6.0217   6.0487   6.0852   6.1261
     6.1980   6.2428   6.3844   6.3975   6.4434   6.4876   6.6158   6.6405
     6.7105   6.8232   6.8464   6.9791   7.0601   7.1531   7.6487   7.7473
     7.9422   8.1957   8.2181   8.3359   8.4470   8.4866   8.5373   8.5575
     8.5823   8.6164   8.6909   8.7275   8.7545   8.8664   8.9150   8.9605
     9.0149   9.0213   9.1152   9.1292   9.2187   9.2408   9.2722   9.3137
     9.3901   9.4580   9.5505   9.6057   9.6890   9.7376   9.7885   9.8227
     9.8665   9.8727   9.9387  10.0085  10.0407  10.0515  10.1369  10.1978
    10.2110  10.3164  10.3855  10.4379  10.4822  10.4990  10.5051  10.5325
    10.5664  10.6018  10.6553  10.6923  10.7485  10.8099  10.8166  10.8745
    10.9043  10.9566  10.9941  11.1919  11.3744  11.4786  11.5955  11.7247
    13.8968  13.9948  14.0515  14.2725  14.3528  14.3640  14.6169  14.6860
    14.7305  14.7608  15.0209  15.2576  15.2802  15.3641  15.5660  15.6677
    15.7714  15.9429  16.1172  16.2145  16.3054  16.3379  16.3829  16.5624
    16.7247  17.1161  17.2373  17.3148  17.3728  17.4042  17.6017  17.6452
    17.7005  17.7645  17.8821  18.1786  18.3038

          k =-0.5000-0.5000-0.5000 ( 29464 PWs)   bands (ev):

   -44.0209 -43.8897 -43.5739 -43.4594 -43.3734 -43.3020 -43.0947 -42.9216
   -20.4745 -20.3543 -20.3232 -20.3125 -20.2608 -20.1783 -20.0496 -20.0203
   -19.9689 -19.9288 -19.8703 -19.8514 -19.7970 -19.7575 -19.7505 -19.7264
   -19.6604 -19.5880 -19.4882 -19.4831 -19.4035 -19.3033 -19.2707 -19.2057
    -3.8234  -3.7685  -3.7088  -3.6279  -3.5393  -3.4971  -3.2824  -3.1002
    -1.9793  -1.9475  -1.9160  -1.8917  -1.8117  -1.7889  -1.7239  -1.6932
    -1.6158  -1.5955  -1.5536  -1.5343  -1.5041  -1.4739  -1.4472  -1.4045
    -1.3455  -1.3238  -1.3153  -1.3025  -1.2808  -1.2352  -1.1756  -1.1422
     5.2108   5.2428   5.2698   5.2890   5.3715   5.4081   5.4342   5.5178
     5.5364   5.5528   5.5804   5.5956   5.6091   5.6430   5.7457   5.8455
     5.9199   6.0534   6.2491   6.3730   6.4338   6.5923   6.7187   6.7840
     7.5660   7.6446   7.6733   7.7147   7.7469   7.7785   7.7916   7.8487
     7.8883   7.9094   8.0040   8.0156   8.1505   8.1557   8.2421   8.3090
     8.3237   8.3843   8.4600   8.5090   8.5445   8.5764   8.5803   8.6270
     8.6717   8.7046   8.7968   8.8107   8.9124   8.9366   9.1374   9.2042
     9.4144   9.4873   9.5866   9.6212   9.6889   9.7201   9.7524   9.8283
     9.8628   9.8774   9.9466   9.9767  10.0492  10.1072  10.1723  10.1908
    10.2734  10.2863  10.3891  10.4419  10.4820  10.5260  10.6097  10.6498
    10.8805  10.9502  10.9866  11.0311  11.0998  11.1298  11.1496  11.1972
    11.2355  11.3113  11.3409  11.3742  11.4030  11.4086  11.4409  11.4650
    14.0005  14.0678  14.1349  14.2765  14.3115  14.3918  14.5319  14.6854
    14.7027  14.7814  14.8816  15.0372  15.1355  15.2474  15.2805  15.4312
    15.5804  15.7500  15.9823  16.2559  16.2932  16.3391  16.3752  16.5541
    17.3762  17.4203  17.4481  17.5577  17.6130  17.7128  17.7689  17.8497
    17.9129  18.0199  18.1496  18.2786  18.3695

          k =-0.5000 0.0000 0.0000 ( 29350 PWs)   bands (ev):

   -44.0209 -43.8897 -43.5739 -43.4593 -43.3734 -43.3020 -43.0947 -42.9216
   -20.4745 -20.3543 -20.3232 -20.3125 -20.2608 -20.1783 -20.0496 -20.0238
   -19.9697 -19.9289 -19.8757 -19.8428 -19.7974 -19.7547 -19.7471 -19.7232
   -19.6694 -19.5853 -19.4889 -19.4831 -19.4039 -19.3034 -19.2699 -19.2063
    -4.4470  -4.2632  -3.1770  -3.0471  -2.9880  -2.9443  -2.8700  -2.7941
    -2.7076  -2.6817  -2.1786  -2.0480  -1.9958  -1.9598  -1.9554  -1.8924
    -1.7856  -1.7108  -1.7034  -1.6927  -1.5727  -1.3995  -1.3779  -1.3577
    -1.2991  -1.2273  -1.1173  -1.1015  -1.0387  -1.0243  -1.0000  -0.9603
     4.8291   4.8413   4.8549   4.8946   4.9946   5.0653   5.3701   5.4176
     5.6925   5.7129   5.8906   5.9949   6.0049   6.0304   6.0752   6.1982
     6.3406   6.4288   6.4801   6.5945   6.7236   6.8171   6.9059   7.0194
     7.0745   7.0973   7.1546   7.2560   7.2902   7.3955   7.4239   7.5016
     7.5908   7.6455   7.7471   7.7776   7.8106   7.9575   8.4699   8.5385
     8.5521   8.6180   8.6695   8.6837   8.7774   8.8167   8.9406   9.1350
     9.1929   9.2716   9.2926   9.3657   9.3703   9.3894   9.4138   9.4726
     9.4926   9.5113   9.5292   9.6362   9.6706   9.7198   9.7356   9.8033
     9.8170   9.8346   9.9178   9.9713  10.0380  10.1040  10.1145  10.1300
    10.1432  10.1808  10.2217  10.2845  10.3307  10.4761  10.4949  10.5082
    10.6001  10.6328  10.6720  10.7765  10.8291  10.9070  10.9294  10.9425
    10.9847  11.0158  11.0297  11.0655  11.5060  11.5335  11.6284  11.6420
    13.1754  13.6336  13.9768  14.0423  14.4136  14.6232  14.7355  14.7694
    14.9319  14.9712  15.1225  15.1404  15.2821  15.3467  15.8720  15.9215
    15.9909  16.0228  16.0932  16.1521  16.3714  16.4028  16.4575  16.4775
    16.5827  16.8373  17.0230  17.0648  17.2648  17.3311  17.4167  17.4646
    17.6240  17.6948  17.7244  17.7895  17.8032

          k = 0.0000-0.5000 0.0000 ( 29350 PWs)   bands (ev):

   -44.0209 -43.8897 -43.5739 -43.4593 -43.3734 -43.3020 -43.0947 -42.9216
   -20.4745 -20.3543 -20.3232 -20.3125 -20.2608 -20.1792 -20.0496 -20.0237
   -19.9697 -19.9289 -19.8757 -19.8427 -19.7975 -19.7541 -19.7470 -19.7225
   -19.6693 -19.5855 -19.4888 -19.4831 -19.4039 -19.3039 -19.2700 -19.2062
    -4.4623  -4.2391  -3.1932  -3.0192  -2.9891  -2.9288  -2.8543  -2.8144
    -2.7908  -2.6405  -2.1377  -2.0191  -1.9790  -1.9355  -1.9297  -1.9126
    -1.9003  -1.8475  -1.7301  -1.6053  -1.5839  -1.4954  -1.3997  -1.3269
    -1.2470  -1.2057  -1.1549  -1.0858  -1.0428  -1.0204  -0.9590  -0.8392
     4.6978   4.7137   4.9348   4.9366   5.1562   5.1588   5.2976   5.5433
     5.6103   5.6580   5.8662   6.0376   6.0664   6.1039   6.1929   6.2568
     6.2894   6.3244   6.4977   6.6963   6.7159   6.7565   6.8350   6.9086
     6.9352   6.9750   7.1628   7.3626   7.4284   7.4409   7.4923   7.5109
     7.5643   7.7398   7.7629   7.7790   7.7995   7.8584   8.3705   8.4271
     8.4897   8.5084   8.6136   8.6447   8.7840   8.8374   8.8580   8.8729
     8.9948   9.1688   9.2527   9.3041   9.3435   9.3909   9.4264   9.4577
     9.4729   9.5209   9.5790   9.5968   9.6044   9.6247   9.6957   9.7676
     9.8416   9.8538   9.9170   9.9735  10.0115  10.0275  10.0922  10.1915
    10.2845  10.3102  10.3286  10.3355  10.4375  10.5368  10.5648  10.6525
    10.7277  10.7597  10.7922  10.7979  10.8666  10.8967  11.0016  11.0282
    11.0451  11.0684  11.0835  11.0962  11.5140  11.5473  11.6514  11.6771
    12.9905  13.7334  13.8703  14.1865  14.4371  14.5000  14.5371  14.6795
    14.8153  14.8565  15.2419  15.4364  15.6333  15.7765  15.8666  15.9015
    15.9502  16.0549  16.1025  16.1396  16.1632  16.2946  16.3394  16.3707
    16.6714  16.7347  16.7456  16.9408  17.1289  17.2419  17.3774  17.4261
    17.6083  17.7246  17.8493  17.9079  17.9820

          k =-0.5000 0.0000 0.5000 ( 29520 PWs)   bands (ev):

   -44.0209 -43.8897 -43.5739 -43.4594 -43.3734 -43.3020 -43.0947 -42.9216
   -20.4746 -20.3543 -20.3232 -20.3125 -20.2608 -20.1783 -20.0496 -20.0203
   -19.9689 -19.9287 -19.8704 -19.8516 -19.7970 -19.7575 -19.7507 -19.7261
   -19.6604 -19.5879 -19.4883 -19.4831 -19.4035 -19.3033 -19.2707 -19.2058
    -4.1237  -4.0000  -3.9332  -3.7579  -2.7779  -2.7220  -2.6813  -2.6287
    -2.6156  -2.5191  -2.4177  -2.3047  -1.9345  -1.8688  -1.7895  -1.7217
    -1.7106  -1.6867  -1.6468  -1.5867  -1.4799  -1.4479  -1.4066  -1.3231
    -1.2997  -1.2765  -1.2497  -1.1835  -1.1714  -1.1162  -1.0131  -0.9437
     4.8948   4.9226   4.9697   4.9910   5.2741   5.2987   5.3626   5.3721
     5.6788   5.7590   5.8508   5.8677   5.9245   6.0809   6.0869   6.1397
     6.1680   6.1949   6.3007   6.3772   6.4739   6.5451   6.5986   6.7123
     6.7955   6.8669   6.9879   7.0403   7.1575   7.3694   7.5756   7.7196
     8.0149   8.0771   8.3490   8.4452   8.4925   8.5358   8.5520   8.6069
     8.6268   8.6595   8.6834   8.7127   8.8959   8.9629   9.0514   9.0778
     9.0876   9.1050   9.1240   9.1665   9.2165   9.2602   9.3455   9.3674
     9.3975   9.4264   9.4597   9.4848   9.6388   9.7017   9.7370   9.7665
     9.7892   9.8292   9.8970   9.9494   9.9648   9.9913  10.1035  10.1335
    10.2019  10.2611  10.2717  10.3292  10.3881  10.4408  10.5090  10.5219
    10.5475  10.5678  10.6058  10.6343  10.7546  10.7882  10.8494  10.8745
    10.9150  10.9229  10.9988  11.0283  11.4553  11.5186  11.6134  11.6960
    14.0179  14.0365  14.1236  14.3082  14.3367  14.3991  14.6097  14.7088
    14.7798  14.8719  14.9068  15.1132  15.1745  15.3466  15.3793  15.4526
    15.7031  15.8669  16.1327  16.2548  16.4070  16.4501  16.4893  16.5195
    16.9687  17.0335  17.2691  17.2895  17.3216  17.4529  17.4969  17.6391
    17.7122  17.8681  17.9933  18.0808  18.1192

          k =-0.5000 0.5000 0.0000 ( 29520 PWs)   bands (ev):

   -44.0209 -43.8897 -43.5739 -43.4594 -43.3734 -43.3020 -43.0947 -42.9216
   -20.4745 -20.3543 -20.3232 -20.3125 -20.2608 -20.1783 -20.0497 -20.0238
   -19.9697 -19.9290 -19.8758 -19.8427 -19.7974 -19.7550 -19.7472 -19.7228
   -19.6694 -19.5855 -19.4888 -19.4831 -19.4039 -19.3034 -19.2699 -19.2063
    -4.1140  -4.0330  -3.9919  -3.6143  -2.7460  -2.7410  -2.6661  -2.6444
    -2.6331  -2.5971  -2.3488  -2.3125  -2.0379  -1.9808  -1.9067  -1.7588
    -1.6931  -1.6561  -1.6135  -1.5822  -1.4795  -1.4420  -1.4245  -1.4136
    -1.2939  -1.2376  -1.2348  -1.1327  -1.0924  -0.9998  -0.9556  -0.9109
     4.7749   4.7830   5.0399   5.0575   5.1506   5.2137   5.6036   5.7307
     5.8526   5.9616   5.9988   6.0091   6.0218   6.0544   6.0948   6.1278
     6.1656   6.1817   6.2263   6.2886   6.3169   6.4080   6.5335   6.7767
     6.8100   6.8592   6.9500   6.9966   7.1767   7.2346   7.2943   7.5634
     7.8308   7.8912   8.1402   8.3040   8.4026   8.4148   8.5160   8.5707
     8.5737   8.6540   8.6860   8.7208   8.7492   8.8388   8.8484   8.9316
     8.9709   8.9877   9.0458   9.1443   9.1774   9.2429   9.3074   9.3348
     9.4872   9.5457   9.5730   9.5880   9.6986   9.7374   9.8279   9.8474
     9.8915   9.9350  10.0165  10.0817  10.1120  10.1740  10.1866  10.2384
    10.2658  10.3193  10.3750  10.3809  10.4190  10.5135  10.5408  10.5590
    10.5999  10.6213  10.6728  10.6884  10.8141  10.8579  10.8847  10.9058
    10.9329  10.9624  10.9895  11.1497  11.3056  11.5471  11.6388  11.6838
    13.6471  13.7454  13.9728  14.4053  14.4595  14.5696  14.7560  14.8159
    14.8444  14.9562  15.0279  15.1120  15.1520  15.3857  15.7092  15.8685
    15.9031  15.9613  16.0076  16.0175  16.1550  16.2801  16.3471  16.5036
    16.5635  17.1282  17.1660  17.2323  17.3610  17.4883  17.5874  17.6780
    17.8454  17.8902  17.9674  18.0372  18.1843

     the Fermi energy is    14.2896 ev

!    total energy              =   -3326.49426598 Ry
     total all-electron energy =    -28826.865813 Ry
     estimated scf accuracy    <       0.00000056 Ry
     smearing contrib. (-TS)   =      -0.00276553 Ry
     internal energy E=F+TS    =   -3326.49150044 Ry

     The total energy is F=E-TS. E is the sum of the following terms:
     one-electron contribution =    -480.34427050 Ry
     hartree contribution      =     469.05316390 Ry
     xc contribution           =    -403.04912272 Ry
     ewald contribution        =   -1302.53837428 Ry
     one-center paw contrib.   =   -1609.61289684 Ry

     convergence has been achieved in  13 iterations

     Forces acting on atoms (cartesian axes, Ry/au):

     atom    1 type  1   force =    -0.00185672    0.00733309   -0.00478424
     atom    2 type  2   force =    -0.00436053   -0.00476283    0.00067713
     atom    3 type  1   force =     0.00015337   -0.00407303   -0.00548004
     atom    4 type  2   force =     0.00277367   -0.00312696   -0.01655890
     atom    5 type  1   force =     0.00540803   -0.00233661   -0.00381299
     atom    6 type  2   force =     0.00534518    0.01800970   -0.00005612
     atom    7 type  1   force =    -0.00194478   -0.00116997   -0.00003171
     atom    8 type  2   force =    -0.00050380   -0.00205558    0.00052215
     atom    9 type  1   force =    -0.00608704    0.00178764    0.00495175
     atom   10 type  2   force =    -0.00788794   -0.01995610   -0.00049083
     atom   11 type  1   force =    -0.00062509    0.00210872    0.00582771
     atom   12 type  2   force =    -0.00054520   -0.00195116    0.01809118
     atom   13 type  1   force =     0.00188661   -0.00347389    0.00379829
     atom   14 type  2   force =     0.00592157    0.00653952    0.00058777
     atom   15 type  3   force =     0.02429564    0.02162766    0.00365942
     atom   16 type  2   force =     0.00358651   -0.00339603    0.00003527
     atom   17 type  1   force =     0.00492499   -0.00800364   -0.01356155
     atom   18 type  2   force =    -0.02097832    0.00515256    0.00280877
     atom   19 type  3   force =    -0.01431469   -0.01348555    0.00414075
     atom   20 type  2   force =     0.01448212    0.00271502   -0.00338969
     atom   21 type  1   force =     0.00422869    0.00216505   -0.00449730
     atom   22 type  2   force =     0.03047485   -0.02548782   -0.00153424
     atom   23 type  1   force =    -0.00191871    0.00224965   -0.00088779
     atom   24 type  2   force =    -0.00163915    0.00146263   -0.01001339
     atom   25 type  1   force =     0.00616634    0.00018654    0.01329390
     atom   26 type  2   force =    -0.03324831    0.02680006   -0.00349433
     atom   27 type  1   force =     0.00097492   -0.00273922   -0.00127737
     atom   28 type  2   force =    -0.01795732    0.00245630    0.00290217
     atom   29 type  1   force =    -0.01464834    0.00212963    0.00375542
     atom   30 type  2   force =     0.02545644   -0.00743834    0.00036414
     atom   31 type  1   force =     0.00305317    0.00035253    0.00077595
     atom   32 type  2   force =    -0.00152601    0.00278833    0.00985385
     atom   33 type  1   force =     0.00185192    0.00505656   -0.00016421
     atom   34 type  2   force =     0.00453214   -0.00814312    0.00198652
     atom   35 type  1   force =    -0.00030336   -0.00777141   -0.01196840
     atom   36 type  2   force =    -0.00340881   -0.02719241   -0.02807009
     atom   37 type  1   force =    -0.00633898    0.00382521    0.00088485
     atom   38 type  2   force =    -0.00570696    0.01034170    0.00075639
     atom   39 type  1   force =     0.00353288   -0.01120216   -0.00082987
     atom   40 type  2   force =     0.00088840   -0.02043292    0.00560411
     atom   41 type  1   force =     0.00640369   -0.00884307   -0.00009122
     atom   42 type  2   force =     0.00839428   -0.02471171   -0.00182588
     atom   43 type  1   force =     0.00019786   -0.01295631    0.01059172
     atom   44 type  2   force =     0.00161966   -0.03046497    0.03016891
     atom   45 type  1   force =    -0.00127508    0.00074089   -0.00091267
     atom   46 type  2   force =    -0.00612634    0.02246601   -0.00124837
     atom   47 type  3   force =    -0.02368361    0.03330361    0.00554332
     atom   48 type  2   force =    -0.00135968   -0.04179960   -0.00725310
     atom   49 type  3   force =     0.01670364    0.01015014   -0.03290755
     atom   50 type  2   force =     0.03435154    0.00863042    0.00861948
     atom   51 type  1   force =    -0.00469209    0.00817024    0.00560491
     atom   52 type  2   force =    -0.02472342    0.03027703   -0.00780146
     atom   53 type  3   force =    -0.01017722   -0.00433063    0.03395879
     atom   54 type  2   force =    -0.03631494   -0.01094686   -0.00879586
     atom   55 type  1   force =     0.00276330    0.01145944   -0.00438412
     atom   56 type  2   force =     0.00105236    0.02637794    0.02533119
     atom   57 type  3   force =     0.02748103   -0.00698853    0.02901888
     atom   58 type  2   force =     0.05695744    0.05442331   -0.00852491
     atom   59 type  3   force =     0.01526680   -0.03135153   -0.01149613
     atom   60 type  2   force =     0.02311974    0.03019224    0.00693140
     atom   61 type  3   force =    -0.03165686   -0.00086923   -0.03092566
     atom   62 type  2   force =    -0.05669838   -0.05311223    0.00790827
     atom   63 type  1   force =    -0.00288789    0.01211514    0.00457244
     atom   64 type  2   force =     0.00114676    0.03117890   -0.02645679

     Total force =     0.220515     Total SCF correction =     0.003386


     Computing stress (Cartesian axis) and pressure

          total   stress  (Ry/bohr**3)                   (kbar)     P=       41.48
   0.00029481  -0.00000693   0.00001424           43.37       -1.02        2.09
  -0.00000693   0.00029803  -0.00001745           -1.02       43.84       -2.57
   0.00001424  -0.00001745   0.00025303            2.09       -2.57       37.22

     Energy error            =      1.5E-01 Ry
     Gradient error          =      5.7E-02 Ry/Bohr

     number of scf cycles    =   2
     number of bfgs steps    =   1

     energy             old  =   -3326.3431873257 Ry
     energy             new  =   -3326.4942659772 Ry

     CASE: energy            _new < energy            _old

     new trust radius        =       0.1557751473 bohr
     new conv_thr            =       0.0000005696 Ry


ATOMIC_POSITIONS (angstrom)
Al           -0.0034937548        0.0109110999       -0.0079598505
N             2.0499225041       -0.0063790945        0.0011668137
Al           -0.0022371196        2.0546461941        2.0489076932
N             2.0578847843        2.0509676348        2.0101036761
Al            2.0662759028       -0.0020754405        2.0506939246
N             0.0090978101        0.0472311284        2.0564745845
Al            2.0536414178        2.0552661576       -0.0004279532
N             0.0005090476        2.0530418168        0.0011616114
Al           -0.0089507851        0.0018209856        4.1207567663
N             2.0425484244       -0.0520556989        4.1117548153
Al           -0.0031500914        2.0595699224        6.1762969547
N             2.0538528681        2.0526328841        6.2166336903
Al            2.0578530477       -0.0039948060        6.1741587687
N             0.0087428485        0.0078613847        6.1695291546
Ti            2.1096009906        2.0992962276        4.1179347747
N             0.0078611052        2.0458615573        4.1117435650
Al            0.0039787714        4.1011221193       -0.0156306423
N             1.9990230037        4.1191345267        0.0043955080
Ti           -0.0338388441        6.1359510202        2.0622812406
N             2.0984989792        6.1739886183        2.0520407258
Al            2.0627436724        4.1143448082        2.0520084653
N             0.0726909044        4.0577785869        2.0538543972
Al            2.0561420048        6.1704783003       -0.0024006957
N            -0.0002302380        6.1717815885       -0.0350457393
Al            0.0018080308        4.1122332382        4.1281888219
N             1.9762138693        4.1731322433        4.1079365282
Al           -0.0002597452        6.1648278412        6.1660622208
N             2.0058308070        6.1752222135        6.1722848069
Al            2.0447107504        4.1156129086        6.1720029748
N             0.0667425499        4.1025900299        6.1702610545
Al            2.0629437540        6.1663473651        4.1149039759
N            -0.0000038850        6.1746214548        4.1464243050
Al            4.1159570913        0.0060216503        0.0014542806
N             6.1753440844       -0.0108988964        0.0028709403
Al            4.1143423946        2.0479793714        2.0462434261
N             6.1644789877        1.9911730084        1.9898841821
Al            6.1582260820        0.0045907307        2.0570556402
N             4.1036231281        0.0135617235        2.0564701502
Al            6.1725332490        2.0441642936       -0.0020674193
N             4.1126834039        2.0020050672        0.0102045915
Al            4.1216843202       -0.0085419488        4.1108754401
N             6.1834352532       -0.0643018362        4.1096545591
Al            4.1160563928        2.0482103684        6.1771802538
N             6.1728423748        1.9859325474        6.2381608003
Al            6.1674155276        0.0018931269        6.1676955628
N             4.1023638443        0.0591027275        6.1677700445
Ti            6.1206403803        2.1403727196        4.1216964441
N             4.1079748687        1.9689357068        4.1013546912
Ti            4.1557964795        4.1351433221       -0.0612668553
N             6.2443693564        4.1264504410        0.0119914940
Al            4.1098997091        6.1771256332        2.0647030096
N             6.1145243977        6.2376442255        2.0434999145
Ti            6.1456721854        4.1084083804        2.1170735677
N             4.0300718180        4.0950563952        2.0418391415
Al            6.1695958805        6.1809663233       -0.0052268548
N             4.1133740492        6.2309005122        0.0621249380
Ti            4.1747406762        4.0917621396        4.1698769061
N             6.2738204122        4.2071929822        4.1006301991
Ti            4.1405020272        6.0852362601        6.1507234568
N             6.2239167480        6.2382752299        6.1802440959
Ti            6.0898867016        4.1069845704        6.1095933846
N             4.0131889957        4.0229334553        6.1815357348
Al            6.1618684014        6.1763459061        4.1183710318
N             4.1122173937        6.2456050469        4.0492863110



     Writing config-only to output data dir ../output/relax_sqs_all_x/tmp_x075/TiAlN_x075_relax.save/
     NEW-OLD atomic charge density approx. for the potential

     Check: negative core charge=   -0.000013

     total cpu time spent up to now is      223.3 secs

     Self-consistent Calculation

     iteration #  1     ecut=    60.00 Ry     beta= 0.20
     Davidson diagonalization with overlap
     c_bands:  1 eigenvalues not converged
     c_bands:  1 eigenvalues not converged
     ethr =  1.00E-06,  avg # of iterations = 20.0

     total cpu time spent up to now is      239.8 secs

     total energy              =   -3326.55931213 Ry
     estimated scf accuracy    <       0.08701203 Ry

     iteration #  2     ecut=    60.00 Ry     beta= 0.20
     Davidson diagonalization with overlap
     ethr =  2.65E-05,  avg # of iterations =  1.9

     total cpu time spent up to now is      244.5 secs

     total energy              =   -3326.54884375 Ry
     estimated scf accuracy    <       0.04556041 Ry

     iteration #  3     ecut=    60.00 Ry     beta= 0.20
     Davidson diagonalization with overlap
     ethr =  1.39E-05,  avg # of iterations =  6.0

     total cpu time spent up to now is      250.4 secs

     total energy              =   -3326.54519296 Ry
     estimated scf accuracy    <       0.01894752 Ry

     iteration #  4     ecut=    60.00 Ry     beta= 0.20
     Davidson diagonalization with overlap
     ethr =  5.78E-06,  avg # of iterations =  8.1

     total cpu time spent up to now is      256.3 secs

     total energy              =   -3326.54645010 Ry
     estimated scf accuracy    <       0.00430623 Ry

     iteration #  5     ecut=    60.00 Ry     beta= 0.20
     Davidson diagonalization with overlap
     ethr =  1.31E-06,  avg # of iterations = 12.0

     total cpu time spent up to now is      264.1 secs

     total energy              =   -3326.54664012 Ry
     estimated scf accuracy    <       0.00138995 Ry

     iteration #  6     ecut=    60.00 Ry     beta= 0.20
     Davidson diagonalization with overlap
     ethr =  4.24E-07,  avg # of iterations =  2.0

     total cpu time spent up to now is      268.8 secs

     total energy              =   -3326.54652425 Ry
     estimated scf accuracy    <       0.00059239 Ry

     iteration #  7     ecut=    60.00 Ry     beta= 0.20
     Davidson diagonalization with overlap
     ethr =  1.81E-07,  avg # of iterations =  2.5

     total cpu time spent up to now is      273.9 secs

     total energy              =   -3326.54657878 Ry
     estimated scf accuracy    <       0.00015396 Ry

     iteration #  8     ecut=    60.00 Ry     beta= 0.20
     Davidson diagonalization with overlap
     ethr =  4.69E-08,  avg # of iterations =  3.0

     total cpu time spent up to now is      278.8 secs

     total energy              =   -3326.54656838 Ry
     estimated scf accuracy    <       0.00008444 Ry

     iteration #  9     ecut=    60.00 Ry     beta= 0.20
     Davidson diagonalization with overlap
     ethr =  2.57E-08,  avg # of iterations =  2.6

     total cpu time spent up to now is      284.4 secs

     total energy              =   -3326.54656890 Ry
     estimated scf accuracy    <       0.00005526 Ry

     iteration # 10     ecut=    60.00 Ry     beta= 0.20
     Davidson diagonalization with overlap
     ethr =  1.68E-08,  avg # of iterations =  2.0

     total cpu time spent up to now is      289.1 secs

     total energy              =   -3326.54656816 Ry
     estimated scf accuracy    <       0.00001095 Ry

     iteration # 11     ecut=    60.00 Ry     beta= 0.20
     Davidson diagonalization with overlap
     ethr =  3.34E-09,  avg # of iterations =  4.1

     total cpu time spent up to now is      294.6 secs

     total energy              =   -3326.54656937 Ry
     estimated scf accuracy    <       0.00000246 Ry

     iteration # 12     ecut=    60.00 Ry     beta= 0.20
     Davidson diagonalization with overlap
     ethr =  7.51E-10,  avg # of iterations =  2.9

     total cpu time spent up to now is      299.9 secs

     total energy              =   -3326.54656970 Ry
     estimated scf accuracy    <       0.00000059 Ry

     iteration # 13     ecut=    60.00 Ry     beta= 0.20
     Davidson diagonalization with overlap
     ethr =  1.79E-10,  avg # of iterations =  2.8

     total cpu time spent up to now is      304.9 secs

     End of self-consistent calculation

          k = 0.0000 0.0000 0.0000 ( 29423 PWs)   bands (ev):

   -44.2748 -44.1844 -43.7826 -43.6177 -43.5973 -43.4852 -43.2074 -43.0490
   -20.7149 -20.6016 -20.5668 -20.5462 -20.5026 -20.4767 -20.2361 -20.2130
   -20.1685 -20.0927 -20.0681 -20.0091 -19.9913 -19.9574 -19.9304 -19.8902
   -19.8486 -19.7456 -19.5991 -19.5930 -19.5079 -19.4268 -19.3739 -19.2773
    -4.7914  -3.5042  -3.4555  -3.3518  -3.2200  -3.1629  -3.0304  -2.3371
    -2.3180  -2.2985  -2.2716  -2.1978  -2.1407  -2.0706  -1.9987  -1.9187
    -1.9112  -1.8857  -1.8574  -1.7535  -1.7195  -1.6326  -1.6272  -1.3180
    -1.2798  -1.2401  -1.0944  -1.0131  -0.9557  -0.9115  -0.8607  -0.7715
     4.2558   4.2945   4.3853   4.3901   5.4977   5.5123   5.5592   5.9443
     5.9714   6.0167   6.0323   6.2582   6.2622   6.3321   6.3822   6.5176
     6.5292   6.6731   6.6948   6.7789   6.8266   6.8789   6.8910   6.9166
     6.9376   6.9975   7.0098   7.0462   7.1794   7.1935   7.3105   7.6742
     7.7253   7.8121   7.8464   7.9512   7.9827   8.0169   8.1353   8.2702
     8.2838   8.2977   8.3394   8.3602   8.3809   8.4242   8.4439   8.4794
     8.5210   8.5935   8.6490   8.8191   8.8950   8.9427   9.1708   9.5949
[...]
     9.5342   9.5509   9.5690   9.6365   9.6474   9.7579   9.7750   9.7891
     9.8461   9.8780   9.9401   9.9545  10.0232  10.0962  10.1388  10.1600
    10.1701  10.1784  10.2524  10.3089  10.3618  10.5119  10.5388  10.5559
    10.5979  10.6400  10.6794  10.8210  10.8769  10.9334  10.9534  10.9727
    10.9801  11.0187  11.0341  11.1001  11.5438  11.5529  11.5567  11.6020
    12.8462  13.2612  13.5630  13.7894  14.1716  14.2937  14.5408  14.5779
    14.7158  14.7637  14.9382  15.0379  15.1304  15.2366  15.6932  15.7298
    15.8599  15.8777  15.9710  16.1679  16.2822  16.3366  16.4000  16.4102
    16.6582  16.7636  16.7799  16.8690  17.0447  17.0772  17.2117  17.2812
    17.4753  17.5366  17.5673  17.6370  17.7413

          k = 0.0000-0.5000 0.0000 ( 29350 PWs)   bands (ev):

   -44.2795 -44.1901 -43.7219 -43.5715 -43.5173 -43.4562 -43.1375 -43.0208
   -20.7245 -20.6106 -20.5722 -20.5478 -20.5049 -20.4795 -20.1949 -20.1402
   -20.1194 -20.0404 -19.9977 -19.9775 -19.9391 -19.9104 -19.8981 -19.8481
   -19.7527 -19.6994 -19.5238 -19.5206 -19.4311 -19.3895 -19.3262 -19.2251
    -4.5225  -4.2776  -3.2538  -3.0725  -3.0506  -2.9874  -2.9261  -2.8366
    -2.8268  -2.6187  -2.1398  -2.0277  -1.9956  -1.9785  -1.9631  -1.9551
    -1.9432  -1.8677  -1.8049  -1.6391  -1.5794  -1.5192  -1.3820  -1.3163
    -1.2185  -1.1866  -1.1747  -1.0893  -1.0406  -1.0348  -0.9399  -0.8470
     4.7400   4.7562   4.9786   4.9861   5.1771   5.1872   5.2888   5.5417
     5.5653   5.6200   5.8628   6.0187   6.0432   6.0859   6.1802   6.2458
     6.2603   6.3705   6.5026   6.6985   6.7520   6.7736   6.8451   6.8693
     6.9000   6.9182   7.1940   7.3710   7.4037   7.4365   7.4845   7.5139
     7.5712   7.7232   7.7425   7.7768   7.7863   7.8590   8.4212   8.4813
     8.4938   8.5373   8.6445   8.6549   8.7524   8.8187   8.8400   8.8585
     8.9807   9.2046   9.2673   9.3252   9.3973   9.3989   9.4354   9.4668
     9.5222   9.5545   9.5644   9.5900   9.6395   9.6881   9.7115   9.7841
     9.8253   9.8481   9.9137   9.9471  10.0355  10.0786  10.1398  10.1779
    10.3154  10.3516  10.3634  10.3722  10.4322  10.5318  10.5482  10.6679
    10.7433  10.7720  10.7841  10.8156  10.8886  10.8931  11.0116  11.0380
    11.0559  11.0837  11.1027  11.1117  11.5428  11.5819  11.5991  11.6370
    12.7038  13.3427  13.4706  14.0264  14.1561  14.1854  14.2474  14.5145
    14.6349  14.6789  15.1153  15.2611  15.3852  15.5885  15.7111  15.7537
    15.8110  15.8687  15.9734  16.1544  16.1879  16.2241  16.3348  16.3790
    16.4806  16.5959  16.6826  16.8821  16.9135  16.9448  17.1189  17.2724
    17.4746  17.6304  17.7674  17.9111  17.9241

          k =-0.5000 0.0000 0.5000 ( 29520 PWs)   bands (ev):

   -44.2795 -44.1901 -43.7218 -43.5716 -43.5172 -43.4562 -43.1376 -43.0209
   -20.7245 -20.6106 -20.5722 -20.5478 -20.5049 -20.4790 -20.1931 -20.1376
   -20.1224 -20.0315 -20.0021 -19.9832 -19.9380 -19.9106 -19.9020 -19.8502
   -19.7472 -19.7017 -19.5239 -19.5199 -19.4313 -19.3892 -19.3264 -19.2249
    -4.1877  -4.0530  -3.9650  -3.8153  -2.8244  -2.7862  -2.7163  -2.6909
    -2.6514  -2.5928  -2.3955  -2.3611  -1.9291  -1.9018  -1.7713  -1.7688
    -1.7142  -1.6972  -1.6127  -1.5359  -1.5275  -1.4767  -1.4488  -1.3812
    -1.3015  -1.2971  -1.2561  -1.2213  -1.1621  -1.0881  -0.9758  -0.9536
     4.9032   4.9457   4.9831   4.9997   5.2699   5.2973   5.3853   5.4023
     5.7190   5.7867   5.8163   5.8849   5.9477   6.0638   6.1050   6.1551
     6.1745   6.2030   6.2667   6.3525   6.4680   6.5273   6.5665   6.6919
     6.7563   6.8844   6.9618   7.0276   7.1945   7.3780   7.5675   7.7141
     8.0096   8.0795   8.3971   8.4450   8.4796   8.5258   8.5698   8.6125
     8.6415   8.6554   8.7056   8.7421   8.8099   8.9733   9.0025   9.0312
     9.0724   9.0854   9.1288   9.1685   9.1990   9.2780   9.3524   9.3629
     9.4196   9.4419   9.4850   9.5120   9.6574   9.7083   9.7408   9.7699
     9.8313   9.8659   9.9283   9.9622   9.9956  10.0264  10.1653  10.1717
    10.2459  10.2823  10.3376  10.3666  10.4362  10.4589  10.5100  10.5514
    10.5777  10.5802  10.5983  10.6514  10.7309  10.8209  10.8665  10.8878
    10.8906  10.9198  10.9452  11.0023  11.5145  11.5254  11.6362  11.7251
    13.5514  13.6250  13.6871  14.0377  14.1259  14.1895  14.3246  14.5284
    14.6057  14.7130  14.7334  14.9310  15.0618  15.2009  15.2462  15.4293
    15.6281  15.7414  16.1505  16.2171  16.3542  16.3784  16.4220  16.5296
    16.7213  16.7680  17.0007  17.0821  17.1202  17.2018  17.2882  17.3807
    17.4545  17.6775  17.8291  17.9472  18.0582

          k =-0.5000 0.5000 0.0000 ( 29520 PWs)   bands (ev):

   -44.2795 -44.1901 -43.7219 -43.5715 -43.5173 -43.4562 -43.1376 -43.0209
   -20.7245 -20.6106 -20.5722 -20.5478 -20.5049 -20.4790 -20.1949 -20.1402
   -20.1194 -20.0404 -19.9977 -19.9776 -19.9398 -19.9103 -19.8983 -19.8481
   -19.7527 -19.6994 -19.5238 -19.5207 -19.4311 -19.3893 -19.3262 -19.2252
    -4.1498  -4.1227  -4.0489  -3.6325  -2.7716  -2.7709  -2.7305  -2.7058
    -2.6767  -2.6366  -2.3840  -2.3383  -2.0664  -2.0099  -1.9190  -1.7603
    -1.7201  -1.6725  -1.6466  -1.5748  -1.4660  -1.4644  -1.4157  -1.4082
    -1.3084  -1.2683  -1.2440  -1.1382  -1.0955  -0.9865  -0.9564  -0.9300
     4.7652   4.7721   5.0630   5.0793   5.1830   5.2588   5.5871   5.7359
     5.9111   5.9453   5.9938   6.0063   6.0266   6.0652   6.1074   6.1455
     6.1742   6.2107   6.2510   6.2957   6.3407   6.4038   6.5352   6.7266
     6.7769   6.8003   6.9336   6.9965   7.1609   7.2191   7.2882   7.5385
     7.8588   7.9076   8.1315   8.2851   8.4097   8.4420   8.4679   8.5179
     8.5800   8.6751   8.7198   8.7341   8.7838   8.8266   8.8425   8.9668
     8.9784   9.0038   9.0592   9.1387   9.1823   9.2534   9.2983   9.3665
     9.5022   9.5161   9.5741   9.5826   9.7188   9.7491   9.8457   9.8741
     9.9498   9.9744  10.0264  10.1024  10.1243  10.1690  10.2192  10.2413
    10.2926  10.3568  10.3879  10.4507  10.4843  10.5209  10.5470  10.5975
    10.6285  10.6506  10.6833  10.6994  10.7787  10.8482  10.8909  10.9030
    10.9474  10.9695  10.9816  11.0080  11.3472  11.5466  11.6696  11.6796
    13.2633  13.3547  13.5793  14.1501  14.1698  14.2549  14.5871  14.6155
    14.6624  14.7553  14.8463  14.9734  15.0678  15.2558  15.6138  15.6946
    15.7720  15.8374  15.8987  16.0230  16.2219  16.2819  16.2952  16.3440
    16.7737  16.8742  16.9056  17.0162  17.0737  17.1251  17.3209  17.3735
    17.6335  17.6616  17.7886  17.8344  18.0514

     the Fermi energy is    14.0496 ev

!    total energy              =   -3326.55825162 Ry
     total all-electron energy =    -28826.929798 Ry
     estimated scf accuracy    <          8.0E-09 Ry
     smearing contrib. (-TS)   =      -0.00225694 Ry
     internal energy E=F+TS    =   -3326.55599468 Ry

     The total energy is F=E-TS. E is the sum of the following terms:
     one-electron contribution =    -467.36624803 Ry
     hartree contribution      =     462.13172111 Ry
     xc contribution           =    -403.05364885 Ry
     ewald contribution        =   -1308.61736052 Ry
     one-center paw contrib.   =   -1609.65045838 Ry

     convergence has been achieved in  10 iterations

     Forces acting on atoms (cartesian axes, Ry/au):

     atom    1 type  1   force =    -0.00004164   -0.00002255    0.00079515
     atom    2 type  2   force =    -0.00033924   -0.00074130    0.00008041
     atom    3 type  1   force =    -0.00010152    0.00137674    0.00041131
     atom    4 type  2   force =    -0.00017604    0.00026561   -0.00046252
     atom    5 type  1   force =     0.00007401   -0.00016162   -0.00004527
     atom    6 type  2   force =     0.00001245    0.00106633    0.00073662
     atom    7 type  1   force =    -0.00074455   -0.00069619   -0.00025085
     atom    8 type  2   force =    -0.00056409    0.00009797    0.00036988
     atom    9 type  1   force =     0.00029298    0.00104373   -0.00045653
     atom   10 type  2   force =     0.00084014   -0.00020435   -0.00018116
     atom   11 type  1   force =    -0.00061690    0.00035639   -0.00010120
     atom   12 type  2   force =     0.00019934   -0.00065488    0.00021440
     atom   13 type  1   force =    -0.00010299   -0.00113902   -0.00007213
     atom   14 type  2   force =    -0.00035837   -0.00042373   -0.00037993
     atom   15 type  3   force =     0.00035108    0.00091779    0.00010443
     atom   16 type  2   force =     0.00039808    0.00087737   -0.00037679
     atom   17 type  1   force =    -0.00041494    0.00001911    0.00038266
     atom   18 type  2   force =    -0.00094273   -0.00084123   -0.00015005
     atom   19 type  3   force =     0.00051623   -0.00004515    0.00078243
     atom   20 type  2   force =     0.00064758   -0.00052387   -0.00000071
     atom   21 type  1   force =     0.00040114   -0.00008673   -0.00021517
     atom   22 type  2   force =     0.00086927    0.00041224    0.00027502
     atom   23 type  1   force =    -0.00028739   -0.00078098   -0.00017270
     atom   24 type  2   force =    -0.00040775    0.00006712   -0.00013281
     atom   25 type  1   force =    -0.00113362    0.00060517    0.00037272
     atom   26 type  2   force =    -0.00133482   -0.00012058   -0.00041966
     atom   27 type  1   force =    -0.00020577    0.00008841   -0.00043026
     atom   28 type  2   force =    -0.00055802   -0.00063695   -0.00014847
     atom   29 type  1   force =     0.00073963   -0.00077493    0.00026888
     atom   30 type  2   force =     0.00119796    0.00047408    0.00006902
     atom   31 type  1   force =     0.00106896   -0.00111258    0.00009362
     atom   32 type  2   force =     0.00023095    0.00022558    0.00025986
     atom   33 type  1   force =    -0.00017955   -0.00112403    0.00002466
     atom   34 type  2   force =     0.00005469    0.00033861    0.00025476
     atom   35 type  1   force =     0.00038988   -0.00028227    0.00024212
     atom   36 type  2   force =     0.00040173    0.00086169   -0.00006443
     atom   37 type  1   force =     0.00018906    0.00089834    0.00018652
     atom   38 type  2   force =     0.00022854   -0.00078723    0.00010458
     atom   39 type  1   force =    -0.00019240    0.00030352   -0.00006897
     atom   40 type  2   force =    -0.00048493   -0.00126272   -0.00031944
     atom   41 type  1   force =    -0.00002363    0.00005657   -0.00014278
     atom   42 type  2   force =     0.00001154   -0.00005379   -0.00011012
     atom   43 type  1   force =     0.00005968    0.00045188   -0.00055582
     atom   44 type  2   force =    -0.00047670    0.00018566    0.00007630
     atom   45 type  1   force =    -0.00020592    0.00027237    0.00001274
     atom   46 type  2   force =    -0.00001035    0.00026186   -0.00033258
     atom   47 type  3   force =    -0.00039623    0.00006570    0.00014959
     atom   48 type  2   force =     0.00025313    0.00002275    0.00009285
     atom   49 type  3   force =    -0.00048896   -0.00131822   -0.00005526
     atom   50 type  2   force =     0.00043316   -0.00014909    0.00078554
     atom   51 type  1   force =     0.00072876   -0.00067594    0.00027780
     atom   52 type  2   force =     0.00036405    0.00097945    0.00062310
     atom   53 type  3   force =     0.00008853    0.00112884   -0.00014000
     atom   54 type  2   force =    -0.00060099    0.00045293   -0.00086473
     atom   55 type  1   force =    -0.00029796    0.00034302   -0.00025370
     atom   56 type  2   force =     0.00003739   -0.00105560    0.00054312
     atom   57 type  3   force =    -0.00017615    0.00088063   -0.00035369
     atom   58 type  2   force =    -0.00043760   -0.00050700    0.00004711
     atom   59 type  3   force =     0.00000460   -0.00003937   -0.00086503
     atom   60 type  2   force =    -0.00004836    0.00035330   -0.00040741
     atom   61 type  3   force =     0.00057175    0.00027771    0.00021415
     atom   62 type  2   force =     0.00059503   -0.00014332   -0.00039555
     atom   63 type  1   force =    -0.00015340   -0.00045830    0.00046416
     atom   64 type  2   force =     0.00025219    0.00079503   -0.00038976

     Total force =     0.007200     Total SCF correction =     0.000211


     Computing stress (Cartesian axis) and pressure

          total   stress  (Ry/bohr**3)                   (kbar)     P=       38.87
   0.00027749   0.00001682   0.00001418           40.82        2.47        2.09
   0.00001682   0.00028082  -0.00001189            2.47       41.31       -1.75
   0.00001418  -0.00001189   0.00023440            2.09       -1.75       34.48

     Energy error            =      2.3E-04 Ry
     Gradient error          =      1.4E-03 Ry/Bohr

     number of scf cycles    =   8
     number of bfgs steps    =   7

     energy             old  =   -3326.5580169582 Ry
     energy             new  =   -3326.5582516214 Ry

     CASE: energy            _new < energy            _old

     new trust radius        =       0.0033906213 bohr

     The maximum number of steps has been reached.

     End of BFGS Geometry Optimization

ATOMIC_POSITIONS (angstrom)
Al            0.0019815096        0.0129894637       -0.0080708333
N             2.0445893318       -0.0106395690        0.0008099373
Al            0.0070158240        2.0448123452        2.0490570342
N             2.0618575006        2.0450300983        2.0153029552
Al            2.0586543268       -0.0063656811        2.0528910359
N             0.0118561896        0.0412110281        2.0553154670
Al            2.0490778400        2.0474714077        0.0008460064
N             0.0027698489        2.0475827585        0.0002590353
Al           -0.0026671017        0.0240436706        4.1238070871
N             2.0385529060       -0.0429285853        4.1127533546
Al           -0.0033919161        2.0444921477        6.1792015389
N             2.0417808475        2.0335940658        6.2119707660
Al            2.0567375397       -0.0203495311        6.1727295358
N             0.0156541120        0.0146149354        6.1733816389
Ti            2.1188023213        2.1083426233        4.1205815424
N             0.0091951406        2.0595098323        4.1174333271
Al           -0.0006670839        4.0919912000       -0.0293504566
N             2.0008045226        4.1236160930        0.0034150353
Ti           -0.0444526262        6.1260228841        2.0683210984
N             2.0878512585        6.1769970420        2.0467785570
Al            2.0683725724        4.1206567262        2.0302003919
N             0.0683898111        4.0534889899        2.0498364801
Al            2.0458592611        6.1820527819       -0.0020734338
N            -0.0010514376        6.1744847722       -0.0248253168
Al            0.0317213259        4.1135382758        4.1466761509
N             1.9957650162        4.1767432168        4.1061703327
Al            0.0026618910        6.1758917653        6.1688054290
N             2.0099981348        6.1674110000        6.1756807713
Al            2.0125730768        4.1160780311        6.1924685496
N             0.0509110650        4.0916324818        6.1728790068
Al            2.0625465817        6.1803838675        4.1131254755
N             0.0079804808        6.1919746920        4.1384295888
Al            4.1129989529       -0.0056125372       -0.0039328431
N             6.1820587043       -0.0112648363        0.0039383080
Al            4.1057179450        2.0340748959        2.0088894573
N             6.1628303009        1.9938306971        1.9946570516
Al            6.1556355744        0.0156885494        2.0605538736
N             4.0943343196        0.0190054196        2.0531737552
Al            6.1845405361        2.0271691691        0.0002930219
N             4.1124563913        1.9918841435        0.0074137955
Al            4.1200440392       -0.0189025608        4.1131206306
N             6.1899853610       -0.0376476368        4.1114808745
Al            4.1034214010        1.9977690442        6.2150275467
N             6.1691959998        1.9874973979        6.2367858643
Al            6.1718953962        0.0071173746        6.1668144989
N             4.0978203132        0.0322258950        6.1665565023
Ti            6.1156984282        2.1606036156        4.1238058597
N             4.1083037165        1.9598659918        4.0940281238
Ti            4.1641493313        4.1453828933       -0.0743147033
N             6.2367408440        4.1338758519        0.0130726846
Al            4.1003583776        6.1918042527        2.0586023139
N             6.1126339611        6.2468804504        2.0391551233
Ti            6.1462586711        4.1050189130        2.1263143757
N             4.0444090096        4.0850407096        2.0326634761
Al            6.1824505338        6.2027860081       -0.0066531682
N             4.1113292369        6.2318142839        0.0484243845
Ti            4.1779090214        4.0842874171        4.1682803578
N             6.2941669848        4.2542549444        4.1072376720
Ti            4.1551905494        6.0577216912        6.1514374976
N             6.2313132487        6.2525897167        6.1837787613
Ti            6.0766538344        4.1202220678        6.1148198063
N             3.9767913632        3.9673255775        6.1770501112
Al            6.1729953739        6.2236510114        4.1210380344
N             4.1179822080        6.2376647585        4.0516798631



     Writing config-only to output data dir ../output/relax_sqs_all_x/tmp_x075/TiAlN_x075_relax.save/
     NEW-OLD atomic charge density approx. for the potential

     Check: negative core charge=   -0.000013
 
     init_run     :      2.54s CPU      2.67s WALL (       1 calls)
     electrons    :    532.23s CPU    542.90s WALL (       8 calls)
     update_pot   :      2.09s CPU      2.11s WALL (       8 calls)
     forces       :     11.78s CPU     12.10s WALL (       8 calls)
     stress       :    103.66s CPU    104.59s WALL (       8 calls)

     Called by init_run:
     wfcinit      :      2.11s CPU      2.19s WALL (       1 calls)
     potinit      :      0.20s CPU      0.22s WALL (       1 calls)
     hinit0       :      0.12s CPU      0.13s WALL (       1 calls)

     Called by electrons:
     c_bands      :    447.93s CPU    455.11s WALL (      94 calls)
     sum_band     :     56.97s CPU     58.81s WALL (      94 calls)
     v_of_rho     :      3.57s CPU      3.64s WALL (     102 calls)
     newd         :      5.77s CPU      6.84s WALL (     102 calls)
     PAW_pot      :     17.20s CPU     17.38s WALL (     110 calls)
     mix_rho      :      4.02s CPU      4.31s WALL (      94 calls)

     Called by c_bands:
     init_us_2    :      8.04s CPU      8.14s WALL (     426 calls)
     init_us_2:cp :      8.04s CPU      8.13s WALL (     426 calls)
     cegterg      :    394.47s CPU    401.24s WALL (     188 calls)

     Called by *egterg:
     cdiaghg      :     28.94s CPU     29.26s WALL (     865 calls)
     h_psi        :    205.52s CPU    208.43s WALL (     883 calls)
     s_psi        :     50.59s CPU     50.96s WALL (     883 calls)
     g_psi        :      0.91s CPU      0.92s WALL (     693 calls)

     Called by h_psi:
     h_psi:calbec :     52.88s CPU     53.23s WALL (     883 calls)
     vloc_psi     :    100.12s CPU    101.71s WALL (     883 calls)
     add_vuspsi   :     50.62s CPU     51.00s WALL (     883 calls)

     General routines
     calbec       :     85.89s CPU     86.46s WALL (    1167 calls)
     fft          :      1.97s CPU      2.00s WALL (    1332 calls)
     ffts         :      2.04s CPU      2.08s WALL (    1875 calls)
     fftw         :    103.61s CPU    105.26s WALL (  220092 calls)
     davcio       :      0.00s CPU      0.06s WALL (       2 calls)
 
     Parallel routines
 
     PWSCF        :  10m57.03s CPU  11m10.02s WALL

 
   This run was terminated on:   3:38:30  11May2026            

=------------------------------------------------------------------------------=
   JOB DONE.
=------------------------------------------------------------------------------=
