
     Program PWSCF v.7.1 starts on 11May2026 at  3:27:21 

     This program is part of the open-source Quantum ESPRESSO suite
     for quantum simulation of materials; please cite
         "P. Giannozzi et al., J. Phys.:Condens. Matter 21 395502 (2009);
         "P. Giannozzi et al., J. Phys.:Condens. Matter 29 465901 (2017);
         "P. Giannozzi et al., J. Chem. Phys. 152 154105 (2020);
          URL http://www.quantum-espresso.org", 
     in publications or presentations arising from this work. More details at
     http://www.quantum-espresso.org/quote

     Parallel version (MPI & OpenMP), running on      32 processor cores
     Number of MPI processes:                32
     Threads/MPI process:                     1

     MPI processes distributed on     1 nodes
     91112 MiB available memory on the printing compute node when the environment starts
 
     Reading input from relax_sqs_x025.in

     Current dimensions of program PWSCF are:
     Max number of different atomic species (ntypx) = 10
     Max number of k-points (npk) = 150000
     Max angular momentum in pseudopotentials (lmaxx) =  4
     file Al.pbe-n-kjpaw_psl.1.0.0.UPF: wavefunction(s)  3S 3P renormalized
     file N.pbe-n-kjpaw_psl.1.0.0.UPF: wavefunction(s)  2S renormalized
     file Ti.pbe-spn-kjpaw_psl.1.0.0.UPF: wavefunction(s)  3S 3P 3D renormalized
 
     K-points division:     npool     =       4
     R & G space division:  proc/nbgrp/npool/nimage =       8
     Subspace diagonalization in iterative solution of the eigenvalue problem:
     one sub-group per band group will be used
     scalapack distributed-memory algorithm (size of sub-group:  2*  2 procs)

 
     Parallelization info
     --------------------
     sticks:   dense  smooth     PW     G-vecs:    dense   smooth      PW
     Min         601     601    164                31341    31341    4466
     Max         602     602    165                31346    31346    4467
     Sum        4809    4809   1313               250743   250743   35729
 
     Using Slab Decomposition
 


     bravais-lattice index     =            0
     lattice parameter (alat)  =      15.8643  a.u.
     unit-cell volume          =    3992.6267 (a.u.)^3
     number of atoms/cell      =           64
     number of atomic types    =            3
     number of electrons       =       472.00
     number of Kohn-Sham states=          283
     kinetic-energy cutoff     =      60.0000  Ry
     charge density cutoff     =     240.0000  Ry
     scf convergence threshold =      1.0E-06
     mixing beta               =       0.2000
     number of iterations used =            8  local-TF  mixing
     energy convergence thresh.=      1.0E-04
     force convergence thresh. =      1.0E-03
     Exchange-correlation= SLA  PW   PBX  PBC
                           (   1   4   3   4   0   0   0)
     nstep                     =            8


     celldm(1)=  15.864251  celldm(2)=   0.000000  celldm(3)=   0.000000
     celldm(4)=   0.000000  celldm(5)=   0.000000  celldm(6)=   0.000000

     crystal axes: (cart. coord. in units of alat)
               a(1) = (   1.000000   0.000000   0.000000 )  
               a(2) = (   0.000000   1.000000   0.000000 )  
               a(3) = (   0.000000   0.000000   1.000000 )  

     reciprocal axes: (cart. coord. in units 2 pi/alat)
               b(1) = (  1.000000  0.000000  0.000000 )  
               b(2) = (  0.000000  1.000000  0.000000 )  
               b(3) = (  0.000000  0.000000  1.000000 )  


     PseudoPot. # 1 for Al read from file:
     ../../pseudo/Al.pbe-n-kjpaw_psl.1.0.0.UPF
     MD5 check sum: 502b6b27b9c6270cab5dd1084b96fa6d
     Pseudo is Projector augmented-wave + core cor, Zval =  3.0
     Generated using &quot;atomic&quot; code by A. Dal Corso  v.6.3
     Shape of augmentation charge: PSQ
     Using radial grid of 1135 points,  6 beta functions with: 
                l(1) =   0
                l(2) =   0
                l(3) =   1
                l(4) =   1
                l(5) =   2
                l(6) =   2
     Q(r) pseudized with 0 coefficients 


     PseudoPot. # 2 for N  read from file:
     ../../pseudo/N.pbe-n-kjpaw_psl.1.0.0.UPF
     MD5 check sum: 14c48229446f9f2d411169a3abcbc3fa
     Pseudo is Projector augmented-wave + core cor, Zval =  5.0
     Generated using &quot;atomic&quot; code by A. Dal Corso  v.6.3
     Shape of augmentation charge: PSQ
     Using radial grid of 1085 points,  4 beta functions with: 
                l(1) =   0
                l(2) =   0
                l(3) =   1
                l(4) =   1
     Q(r) pseudized with 0 coefficients 


     PseudoPot. # 3 for Ti read from file:
     ../../pseudo/Ti.pbe-spn-kjpaw_psl.1.0.0.UPF
     MD5 check sum: 01f69b0d8ba4438b2e03ac6ea4af1c0b
     Pseudo is Projector augmented-wave + core cor, Zval = 12.0
     Generated using &quot;atomic&quot; code by A. Dal Corso  v.6.2.2
     Shape of augmentation charge: PSQ
     Using radial grid of 1177 points,  6 beta functions with: 
                l(1) =   0
                l(2) =   0
                l(3) =   1
                l(4) =   1
                l(5) =   2
                l(6) =   2
     Q(r) pseudized with 0 coefficients 


     atomic species   valence    mass     pseudopotential
        Al             3.00    26.98200     Al( 1.00)
        N              5.00    14.00700     N ( 1.00)
        Ti            12.00    47.86700     Ti( 1.00)

     No symmetry found



   Cartesian axes

     site n.     atom                  positions (alat units)
         1           Al  tau(   1) = (   0.0000000   0.0000000   0.0000000  )
         2           N   tau(   2) = (   0.2500000   0.0000000   0.0000000  )
         3           Al  tau(   3) = (   0.0000000   0.2500000   0.2500000  )
         4           N   tau(   4) = (   0.2500000   0.2500000   0.2500000  )
         5           Ti  tau(   5) = (   0.2500000   0.0000000   0.2500000  )
         6           N   tau(   6) = (   0.0000000   0.0000000   0.2500000  )
         7           Ti  tau(   7) = (   0.2500000   0.2500000   0.0000000  )
         8           N   tau(   8) = (   0.0000000   0.2500000   0.0000000  )
         9           Al  tau(   9) = (   0.0000000   0.0000000   0.5000000  )
        10           N   tau(  10) = (   0.2500000   0.0000000   0.5000000  )
        11           Ti  tau(  11) = (   0.0000000   0.2500000   0.7500000  )
        12           N   tau(  12) = (   0.2500000   0.2500000   0.7500000  )
        13           Al  tau(  13) = (   0.2500000   0.0000000   0.7500000  )
        14           N   tau(  14) = (   0.0000000   0.0000000   0.7500000  )
        15           Al  tau(  15) = (   0.2500000   0.2500000   0.5000000  )
        16           N   tau(  16) = (   0.0000000   0.2500000   0.5000000  )
        17           Ti  tau(  17) = (   0.0000000   0.5000000   0.0000000  )
        18           N   tau(  18) = (   0.2500000   0.5000000   0.0000000  )
        19           Ti  tau(  19) = (   0.0000000   0.7500000   0.2500000  )
        20           N   tau(  20) = (   0.2500000   0.7500000   0.2500000  )
        21           Ti  tau(  21) = (   0.2500000   0.5000000   0.2500000  )
        22           N   tau(  22) = (   0.0000000   0.5000000   0.2500000  )
        23           Al  tau(  23) = (   0.2500000   0.7500000   0.0000000  )
        24           N   tau(  24) = (   0.0000000   0.7500000   0.0000000  )
        25           Ti  tau(  25) = (   0.0000000   0.5000000   0.5000000  )
        26           N   tau(  26) = (   0.2500000   0.5000000   0.5000000  )
        27           Ti  tau(  27) = (   0.0000000   0.7500000   0.7500000  )
        28           N   tau(  28) = (   0.2500000   0.7500000   0.7500000  )
        29           Al  tau(  29) = (   0.2500000   0.5000000   0.7500000  )
        30           N   tau(  30) = (   0.0000000   0.5000000   0.7500000  )
        31           Ti  tau(  31) = (   0.2500000   0.7500000   0.5000000  )
        32           N   tau(  32) = (   0.0000000   0.7500000   0.5000000  )
        33           Ti  tau(  33) = (   0.5000000   0.0000000   0.0000000  )
        34           N   tau(  34) = (   0.7500000   0.0000000   0.0000000  )
        35           Al  tau(  35) = (   0.5000000   0.2500000   0.2500000  )
        36           N   tau(  36) = (   0.7500000   0.2500000   0.2500000  )
        37           Ti  tau(  37) = (   0.7500000   0.0000000   0.2500000  )
        38           N   tau(  38) = (   0.5000000   0.0000000   0.2500000  )
        39           Ti  tau(  39) = (   0.7500000   0.2500000   0.0000000  )
        40           N   tau(  40) = (   0.5000000   0.2500000   0.0000000  )
        41           Ti  tau(  41) = (   0.5000000   0.0000000   0.5000000  )
        42           N   tau(  42) = (   0.7500000   0.0000000   0.5000000  )
        43           Ti  tau(  43) = (   0.5000000   0.2500000   0.7500000  )
        44           N   tau(  44) = (   0.7500000   0.2500000   0.7500000  )
        45           Ti  tau(  45) = (   0.7500000   0.0000000   0.7500000  )
        46           N   tau(  46) = (   0.5000000   0.0000000   0.7500000  )
        47           Ti  tau(  47) = (   0.7500000   0.2500000   0.5000000  )
        48           N   tau(  48) = (   0.5000000   0.2500000   0.5000000  )
        49           Ti  tau(  49) = (   0.5000000   0.5000000   0.0000000  )
        50           N   tau(  50) = (   0.7500000   0.5000000   0.0000000  )
        51           Ti  tau(  51) = (   0.5000000   0.7500000   0.2500000  )
        52           N   tau(  52) = (   0.7500000   0.7500000   0.2500000  )
        53           Ti  tau(  53) = (   0.7500000   0.5000000   0.2500000  )
        54           N   tau(  54) = (   0.5000000   0.5000000   0.2500000  )
        55           Ti  tau(  55) = (   0.7500000   0.7500000   0.0000000  )
        56           N   tau(  56) = (   0.5000000   0.7500000   0.0000000  )
        57           Ti  tau(  57) = (   0.5000000   0.5000000   0.5000000  )
        58           N   tau(  58) = (   0.7500000   0.5000000   0.5000000  )
        59           Ti  tau(  59) = (   0.5000000   0.7500000   0.7500000  )
        60           N   tau(  60) = (   0.7500000   0.7500000   0.7500000  )
        61           Ti  tau(  61) = (   0.7500000   0.5000000   0.7500000  )
        62           N   tau(  62) = (   0.5000000   0.5000000   0.7500000  )
        63           Ti  tau(  63) = (   0.7500000   0.7500000   0.5000000  )
        64           N   tau(  64) = (   0.5000000   0.7500000   0.5000000  )

     number of k points=     8  Gaussian smearing, width (Ry)=  0.0050
                       cart. coord. in units 2pi/alat
        k(    1) = (   0.0000000   0.0000000   0.0000000), wk =   0.2500000
        k(    2) = (   0.0000000   0.0000000  -0.5000000), wk =   0.2500000
        k(    3) = (   0.0000000  -0.5000000  -0.5000000), wk =   0.2500000
        k(    4) = (  -0.5000000  -0.5000000  -0.5000000), wk =   0.2500000
        k(    5) = (  -0.5000000   0.0000000   0.0000000), wk =   0.2500000
        k(    6) = (   0.0000000  -0.5000000   0.0000000), wk =   0.2500000
        k(    7) = (  -0.5000000   0.0000000   0.5000000), wk =   0.2500000
        k(    8) = (  -0.5000000   0.5000000   0.0000000), wk =   0.2500000

     Dense  grid:   250743 G-vectors     FFT dimensions: (  80,  80,  80)

     Estimated max dynamical RAM per process >     232.24 MB

     Estimated total dynamical RAM >       7.08 GB

     Check: negative core charge=   -0.000027

     Initial potential from superposition of free atoms

     starting charge     471.9460, renormalised to     472.0000
     Starting wfcs are  400 randomized atomic wfcs
     Checking if some PAW data can be deallocated... 

     total cpu time spent up to now is        4.2 secs

     Self-consistent Calculation

     iteration #  1     ecut=    60.00 Ry     beta= 0.20
     Davidson diagonalization with overlap
     ethr =  1.00E-02,  avg # of iterations =  2.0

     total cpu time spent up to now is       11.8 secs

     total energy              =   -5636.92061895 Ry
     estimated scf accuracy    <      20.48112169 Ry

     iteration #  2     ecut=    60.00 Ry     beta= 0.20
     Davidson diagonalization with overlap
     ethr =  4.34E-03,  avg # of iterations =  1.0

     total cpu time spent up to now is       18.0 secs

     total energy              =   -5631.83991229 Ry
     estimated scf accuracy    <      11.67275081 Ry

     iteration #  3     ecut=    60.00 Ry     beta= 0.20
     Davidson diagonalization with overlap
     ethr =  2.47E-03,  avg # of iterations =  3.9

     total cpu time spent up to now is       26.9 secs

     total energy              =   -5634.74629317 Ry
     estimated scf accuracy    <       0.91774812 Ry

     iteration #  4     ecut=    60.00 Ry     beta= 0.20
     Davidson diagonalization with overlap
     ethr =  1.94E-04,  avg # of iterations =  4.0

     total cpu time spent up to now is       35.0 secs

     total energy              =   -5634.81526355 Ry
     estimated scf accuracy    <       0.33081714 Ry

     iteration #  5     ecut=    60.00 Ry     beta= 0.20
     Davidson diagonalization with overlap
     ethr =  7.01E-05,  avg # of iterations =  3.2

     total cpu time spent up to now is       43.0 secs

     total energy              =   -5634.77983484 Ry
     estimated scf accuracy    <       0.21069311 Ry

     iteration #  6     ecut=    60.00 Ry     beta= 0.20
     Davidson diagonalization with overlap
     ethr =  4.46E-05,  avg # of iterations =  9.0

     total cpu time spent up to now is       57.5 secs

     total energy              =   -5634.79809772 Ry
     estimated scf accuracy    <       0.08142611 Ry

     iteration #  7     ecut=    60.00 Ry     beta= 0.20
     Davidson diagonalization with overlap
     ethr =  1.73E-05,  avg # of iterations = 10.1

     total cpu time spent up to now is       70.5 secs

     total energy              =   -5634.80436494 Ry
     estimated scf accuracy    <       0.00827650 Ry

     iteration #  8     ecut=    60.00 Ry     beta= 0.20
     Davidson diagonalization with overlap
     ethr =  1.75E-06,  avg # of iterations = 14.4

     total cpu time spent up to now is       89.8 secs

     total energy              =   -5634.80607866 Ry
     estimated scf accuracy    <       0.00381560 Ry

     iteration #  9     ecut=    60.00 Ry     beta= 0.20
     Davidson diagonalization with overlap
     ethr =  8.08E-07,  avg # of iterations =  5.9

     total cpu time spent up to now is      101.1 secs

     total energy              =   -5634.80688533 Ry
     estimated scf accuracy    <       0.00131890 Ry

     iteration # 10     ecut=    60.00 Ry     beta= 0.20
     Davidson diagonalization with overlap
     ethr =  2.79E-07,  avg # of iterations =  2.9

     total cpu time spent up to now is      109.1 secs

     total energy              =   -5634.80707331 Ry
     estimated scf accuracy    <       0.00013755 Ry

     iteration # 11     ecut=    60.00 Ry     beta= 0.20
     Davidson diagonalization with overlap
     ethr =  2.91E-08,  avg # of iterations =  5.4

     total cpu time spent up to now is      120.0 secs

     total energy              =   -5634.80705339 Ry
     estimated scf accuracy    <       0.00035436 Ry

     iteration # 12     ecut=    60.00 Ry     beta= 0.20
     Davidson diagonalization with overlap
     ethr =  2.91E-08,  avg # of iterations =  2.8

     total cpu time spent up to now is      128.4 secs

     total energy              =   -5634.80707597 Ry
     estimated scf accuracy    <       0.00004917 Ry

     iteration # 13     ecut=    60.00 Ry     beta= 0.20
     Davidson diagonalization with overlap
     ethr =  1.04E-08,  avg # of iterations =  2.0

     total cpu time spent up to now is      135.6 secs

     total energy              =   -5634.80707473 Ry
     estimated scf accuracy    <       0.00002698 Ry

     iteration # 14     ecut=    60.00 Ry     beta= 0.20
     Davidson diagonalization with overlap
     ethr =  5.72E-09,  avg # of iterations =  2.0

     total cpu time spent up to now is      142.8 secs

     total energy              =   -5634.80707279 Ry
     estimated scf accuracy    <       0.00001070 Ry

     iteration # 15     ecut=    60.00 Ry     beta= 0.20
     Davidson diagonalization with overlap
     ethr =  2.27E-09,  avg # of iterations =  9.1

     total cpu time spent up to now is      156.1 secs

     End of self-consistent calculation

          k = 0.0000 0.0000 0.0000 ( 31439 PWs)   bands (ev):

   -41.5481 -41.4930 -41.4798 -41.4617 -41.4401 -41.4368 -41.4210 -41.4188
   -41.4100 -41.4092 -41.3992 -41.3967 -41.3916 -41.3877 -41.3860 -41.3812
   -41.3770 -41.3717 -41.3697 -41.3598 -41.3561 -41.3524 -41.3438 -41.3373
   -18.1280 -18.1197 -18.1103 -18.0963 -18.0355 -18.0207 -18.0062 -17.9827
   -17.9785 -17.9662 -17.9602 -17.9530 -17.9385 -17.9370 -17.9308 -17.9164
   -17.9029 -17.8941 -17.8819 -17.8729 -17.8673 -17.8514 -17.8465 -17.8400
   -17.8375 -17.8294 -17.8223 -17.8084 -17.8048 -17.7991 -17.7887 -17.7775
   -17.7670 -17.7598 -17.7488 -17.7410 -17.7282 -17.7119 -17.7083 -17.7069
   -17.7016 -17.6901 -17.6866 -17.6823 -17.6752 -17.6651 -17.6631 -17.6589
   -17.6550 -17.6498 -17.6335 -17.6287 -17.6262 -17.6156 -17.6107 -17.6010
   -17.5918 -17.5876 -17.5852 -17.5733 -17.5692 -17.5582 -17.5540 -17.5489
   -17.5377 -17.5362 -17.5320 -17.5231 -17.5187 -17.5106 -17.5053 -17.4985
    -1.5096  -0.4385  -0.3250  -0.2899  -0.0829  -0.0559  -0.0065   0.5144
     0.5324   0.5435   0.6082   0.6304   0.6607   0.6826   0.7275   0.7774
     0.7921   0.8228   0.8500   0.8761   0.9313   0.9805   1.0018   1.0490
     1.0950   1.1589   1.1749   1.1940   1.3408   1.3639   1.4159   1.4304
     7.1336   7.1728   7.1786   7.4115   8.2597   8.8251   8.8480   8.8918
     8.9097   8.9300   8.9723   8.9811   9.0385   9.0495   9.1261   9.4244
     9.4609   9.4783   9.4861   9.6385   9.7372   9.8120   9.8482   9.8761
     9.9772  10.0234  10.0468  10.0576  10.1172  10.1627  10.1732  10.2702
    10.3297  10.3761  10.5689  10.6053  10.6226  10.6539  10.7029  10.7334
    10.8026  10.8110  10.8197  10.8407  10.8487  10.8594  10.8761  10.8881
    10.8929  10.8948  10.9096  10.9273  11.0145  11.0425  11.0693  11.1344
    11.1576  11.1666  11.2031  11.2395  11.3240  11.3397  11.4645  11.4820
    11.5182  11.5426  11.5806  11.6509  11.6935  11.7301  11.7440  11.7859
    12.2403  12.2558  12.2617  12.4708  12.5313  12.5725  12.6942  12.7197
    12.7364  12.8323  12.8704  12.9320  13.0054  13.0160  13.0495  13.0938
    13.1012  13.1327  13.1445  13.1668  13.1817  13.6760  13.8061  13.9046
    14.2365  14.2401  14.2434  14.7960  14.8480  14.8908  14.9265  15.0364
    15.1531  16.1831  16.2109  16.2967  17.2579  17.2631  17.2658  17.2788
    17.2922  17.3093  17.3193  17.3508  17.3704  17.4110  17.4552  17.4685
    17.4851  17.4984  17.5529  17.5884  17.6132  17.6513  17.7078  17.7125
    17.7447  17.7645  17.7907  17.8109  17.8301  17.8608  17.8706  17.8755
    17.8881  17.9493  18.0311  18.0684  18.0840  18.0951  18.0974  18.1014
    18.1053  18.1102  18.1192  18.1252  18.1354  18.1385  18.1655  18.1742
    18.1874  18.1929  18.1976

          k = 0.0000 0.0000-0.5000 ( 31464 PWs)   bands (ev):

   -41.5479 -41.4920 -41.4778 -41.4582 -41.4519 -41.4342 -41.4253 -41.4199
   -41.4091 -41.4052 -41.4018 -41.3977 -41.3964 -41.3851 -41.3819 -41.3784
   -41.3719 -41.3690 -41.3672 -41.3623 -41.3573 -41.3513 -41.3445 -41.3426
   -18.1028 -18.0687 -18.0625 -18.0594 -18.0479 -18.0429 -18.0279 -18.0222
   -17.9886 -17.9782 -17.9733 -17.9665 -17.9559 -17.9442 -17.9383 -17.9230
   -17.9125 -17.9095 -17.9004 -17.8896 -17.8794 -17.8717 -17.8663 -17.8586
   -17.8579 -17.8445 -17.8280 -17.8174 -17.8125 -17.7935 -17.7806 -17.7660
   -17.7468 -17.7412 -17.7283 -17.7259 -17.7124 -17.7014 -17.6967 -17.6938
   -17.6838 -17.6834 -17.6702 -17.6665 -17.6536 -17.6524 -17.6458 -17.6432
   -17.6332 -17.6299 -17.6257 -17.6190 -17.6167 -17.6100 -17.6070 -17.6027
   -17.5986 -17.5872 -17.5767 -17.5695 -17.5653 -17.5629 -17.5578 -17.5570
   -17.5504 -17.5438 -17.5410 -17.5375 -17.5349 -17.5332 -17.5283 -17.5261
    -1.1431  -1.1084  -0.0375  -0.0115   0.0007   0.1353   0.1857   0.2239
     0.2584   0.2755   0.4589   0.4883   0.7282   0.7668   0.7777   0.7994
     0.8329   0.8445   0.8772   0.9363   1.0056   1.0450   1.0580   1.0823
     1.1224   1.1501   1.1814   1.2043   1.2058   1.2511   1.2936   1.3573
     7.3972   7.4312   7.7488   7.7607   7.9211   8.0059   8.7284   8.7513
     8.8429   8.9526   9.0716   9.1586   9.1836   9.2747   9.2837   9.3151
     9.4526   9.4668   9.5372   9.5826   9.5895   9.6527   9.7108   9.7600
     9.8141   9.8912   9.9190   9.9705  10.0052  10.0350  10.1198  10.1372
    10.1977  10.3921  10.6189  10.6708  10.7202  10.7875  10.8189  10.8398
    10.8545  10.8743  10.8879  10.9267  10.9795  11.0251  11.0353  11.0588
    11.0798  11.0870  11.1034  11.1114  11.1287  11.2439  11.2769  11.3508
    11.3882  11.4303  11.4698  11.4753  11.5159  11.6189  11.6319  11.6463
    11.6838  11.7052  11.7238  11.7573  11.8013  11.8580  11.8683  11.8786
    11.9155  11.9245  11.9487  12.0125  12.1028  12.1629  12.2518  12.2665
    12.2870  12.3141  12.3719  12.4586  12.6405  12.7142  12.7555  12.7779
    12.8119  12.8287  12.8619  12.8868  13.6021  13.6188  13.6261  13.6456
    14.1479  14.1616  15.3516  15.3721  15.4696  15.4818  15.7278  15.7623
    15.9147  15.9750  15.9809  16.0024  16.3755  16.4123  16.4514  16.4714
    17.0847  17.1314  17.2943  17.3014  17.3525  17.3772  17.3960  17.4813
    17.5020  17.5211  17.5349  17.5502  17.5700  17.5960  17.6217  17.6373
    17.6595  17.6737  17.6983  17.7126  17.7359  17.7522  17.7782  17.7917
    17.8048  17.9094  17.9355  17.9405  17.9657  17.9748  17.9916  18.0212
    18.1020  18.1221  18.1465  18.1701  18.1772  18.2012  18.2293  18.2412
    18.2754  18.2865  18.3191

          k = 0.0000-0.5000-0.5000 ( 31256 PWs)   bands (ev):

   -41.5477 -41.4902 -41.4791 -41.4566 -41.4503 -41.4381 -41.4227 -41.4221
   -41.4180 -41.4112 -41.4041 -41.3924 -41.3863 -41.3841 -41.3788 -41.3765
   -41.3748 -41.3678 -41.3630 -41.3597 -41.3574 -41.3554 -41.3487 -41.3434
   -18.0747 -18.0626 -18.0586 -18.0515 -18.0397 -18.0232 -18.0140 -18.0112
   -18.0062 -17.9945 -17.9935 -17.9892 -17.9641 -17.9609 -17.9558 -17.9435
   -17.9359 -17.9181 -17.9028 -17.9011 -17.8847 -17.8823 -17.8737 -17.8573
   -17.8424 -17.8248 -17.8194 -17.8032 -17.7944 -17.7755 -17.7667 -17.7521
   -17.7421 -17.7164 -17.7146 -17.7098 -17.6986 -17.6953 -17.6917 -17.6805
   -17.6772 -17.6733 -17.6703 -17.6682 -17.6666 -17.6569 -17.6557 -17.6472
   -17.6463 -17.6393 -17.6346 -17.6325 -17.6293 -17.6239 -17.6163 -17.6118
   -17.5996 -17.5961 -17.5926 -17.5860 -17.5783 -17.5724 -17.5682 -17.5642
   -17.5588 -17.5557 -17.5485 -17.5348 -17.5186 -17.5119 -17.5000 -17.4884
    -0.9073  -0.8351  -0.6588  -0.5133   0.2856   0.2967   0.3358   0.4532
     0.4683   0.4820   0.5278   0.5650   0.5880   0.6252   0.6649   0.7108
     0.7731   0.7905   0.8347   0.8718   0.9246   0.9887   0.9969   1.0064
     1.0679   1.0974   1.1428   1.1721   1.2242   1.2986   1.3660   1.4241
     7.5601   7.7574   7.8048   7.9326   8.0825   8.3471   8.3946   8.8216
     8.8889   8.9100   8.9964   9.0690   9.1088   9.1799   9.3126   9.3200
     9.3893   9.4056   9.4275   9.4899   9.5295   9.6038   9.6233   9.6748
     9.7293   9.8339   9.9239   9.9832  10.1403  10.1739  10.2091  10.3019
    10.3657  10.4230  10.4758  10.4898  10.7483  10.8510  10.8867  10.9117
    10.9505  10.9800  10.9846  11.0247  11.0453  11.0774  11.0922  11.1346
    11.1578  11.2051  11.2304  11.2637  11.3044  11.3336  11.3672  11.4414
    11.4582  11.4908  11.5077  11.5382  11.5842  11.6199  11.6477  11.6675
    11.7045  11.7182  11.7293  11.7326  11.7467  11.7557  11.7927  11.8214
    11.8613  11.8941  11.9131  11.9307  11.9487  12.0219  12.0245  12.0414
    12.0666  12.1149  12.1273  12.3289  12.4034  12.4665  12.6072  12.6492
    12.7157  12.8067  12.8551  13.0149  13.0704  13.1069  13.1373  13.2567
    15.3406  15.3983  15.4645  15.5803  15.7080  15.7664  15.8464  15.8547
    15.9269  15.9653  16.0445  16.2265  16.3332  16.4141  16.4230  16.4496
    16.5013  16.5400  16.6494  16.7692  16.8246  16.8708  16.9950  17.0135
    17.1348  17.2055  17.2358  17.3037  17.3871  17.4896  17.5402  17.5484
    17.5734  17.6083  17.6387  17.6625  17.7285  17.7681  17.7731  17.8663
    17.8967  17.9431  17.9522  17.9805  18.0224  18.0340  18.0680  18.0842
    18.1052  18.1435  18.2200  18.2289  18.2526  18.2784  18.2984  18.3406
    18.3526  18.4107  18.4132

          k =-0.5000-0.5000-0.5000 ( 31144 PWs)   bands (ev):

   -41.5473 -41.4909 -41.4777 -41.4524 -41.4487 -41.4424 -41.4346 -41.4227
   -41.4168 -41.4068 -41.4037 -41.3895 -41.3866 -41.3824 -41.3771 -41.3761
   -41.3706 -41.3676 -41.3642 -41.3621 -41.3575 -41.3552 -41.3508 -41.3445
   -18.0723 -18.0650 -18.0526 -18.0435 -18.0314 -18.0258 -18.0244 -18.0115
   -18.0099 -18.0011 -17.9890 -17.9800 -17.9737 -17.9587 -17.9538 -17.9475
   -17.9397 -17.9301 -17.9125 -17.8993 -17.8816 -17.8764 -17.8544 -17.8435
   -17.8271 -17.8157 -17.8118 -17.8038 -17.7933 -17.7832 -17.7739 -17.7634
   -17.7426 -17.7238 -17.7226 -17.7128 -17.7023 -17.6958 -17.6909 -17.6856
   -17.6785 -17.6745 -17.6735 -17.6680 -17.6644 -17.6586 -17.6542 -17.6516
   -17.6472 -17.6455 -17.6364 -17.6335 -17.6314 -17.6278 -17.6246 -17.6179
   -17.6073 -17.5993 -17.5905 -17.5863 -17.5814 -17.5780 -17.5691 -17.5604
   -17.5578 -17.5383 -17.5322 -17.5253 -17.5128 -17.5060 -17.5008 -17.4896
    -0.7141  -0.6411  -0.4620  -0.3505  -0.2386  -0.1510  -0.0140   0.0242
     0.5477   0.6280   0.6768   0.7086   0.7384   0.7936   0.8353   0.8675
     0.8742   0.8793   0.9132   0.9302   0.9689   0.9860   0.9937   1.0070
     1.0241   1.0433   1.0648   1.1138   1.1581   1.1676   1.2512   1.2780
     7.9015   7.9428   7.9534   8.0471   8.1722   8.2568   8.5665   8.6632
     8.8237   8.9229   8.9514   9.0143   9.0422   9.1082   9.2006   9.2107
     9.3000   9.3727   9.4256   9.5365   9.5806   9.6131   9.6731   9.7099
     9.9791  10.0587  10.2524  10.2882  10.3756  10.4018  10.4187  10.4481
    10.5388  10.5657  10.6156  10.6404  10.6611  10.6932  10.6996  10.7429
    10.7745  10.8302  10.8565  10.8793  10.9071  10.9299  10.9951  11.0017
    11.0429  11.0565  11.1163  11.1364  11.1528  11.1602  11.1997  11.2140
    11.4727  11.4843  11.5259  11.5370  11.5658  11.5972  11.6377  11.6694
    11.6826  11.6923  11.7197  11.7294  11.7381  11.7551  11.7951  11.8064
    11.8227  11.8284  11.8644  11.8971  11.9428  11.9516  11.9959  12.0093
    12.1965  12.2059  12.2446  12.3334  12.4142  12.4811  12.5933  12.6229
    12.6963  12.7219  12.8267  12.9310  13.0149  13.0278  13.0957  13.1168
    15.7943  15.8167  15.8313  15.8890  15.9283  15.9479  16.0003  16.0277
    16.0698  16.1071  16.1510  16.1683  16.2142  16.2608  16.2855  16.3061
    16.3833  16.4603  16.5034  16.5920  16.6417  16.6569  16.7426  16.8604
    16.8749  16.9009  16.9223  16.9642  17.0140  17.0350  17.0550  17.1188
    17.2161  17.3187  17.3219  17.3294  17.4198  17.4304  17.4566  17.5062
    17.5351  17.8823  17.9005  17.9745  18.0471  18.0668  18.1025  18.1580
    18.4210  18.4464  18.4490  18.4606  18.4759  18.4945  18.5025  18.5050
    18.5232  18.5379  18.5483

          k =-0.5000 0.0000 0.0000 ( 31464 PWs)   bands (ev):

   -41.5476 -41.4937 -41.4774 -41.4602 -41.4510 -41.4351 -41.4190 -41.4147
   -41.4115 -41.4086 -41.4014 -41.3962 -41.3933 -41.3878 -41.3860 -41.3804
   -41.3717 -41.3706 -41.3677 -41.3605 -41.3564 -41.3555 -41.3453 -41.3375
   -18.0927 -18.0856 -18.0764 -18.0762 -18.0522 -18.0438 -18.0329 -18.0301
   -17.9867 -17.9793 -17.9695 -17.9636 -17.9450 -17.9367 -17.9212 -17.9174
   -17.9144 -17.8994 -17.8884 -17.8791 -17.8733 -17.8643 -17.8580 -17.8462
   -17.8370 -17.8234 -17.8203 -17.8137 -17.8085 -17.7965 -17.7890 -17.7871
   -17.7751 -17.7496 -17.7441 -17.7220 -17.7172 -17.7115 -17.7074 -17.6916
   -17.6856 -17.6843 -17.6682 -17.6666 -17.6587 -17.6521 -17.6481 -17.6457
   -17.6383 -17.6332 -17.6287 -17.6229 -17.6185 -17.6168 -17.6106 -17.6058
   -17.6016 -17.5950 -17.5877 -17.5815 -17.5758 -17.5704 -17.5627 -17.5553
   -17.5496 -17.5459 -17.5419 -17.5341 -17.5198 -17.5119 -17.5071 -17.4994
    -1.2689  -0.8903  -0.2552  -0.0589   0.0062   0.1248   0.2175   0.2840
     0.2923   0.3946   0.4380   0.5291   0.6711   0.7079   0.7667   0.7801
     0.8155   0.8860   0.9249   0.9353   0.9543   1.0118   1.0432   1.0937
     1.1302   1.1398   1.1716   1.2083   1.2332   1.3012   1.3184   1.3433
     7.4700   7.4906   7.6188   7.7366   7.7903   8.5138   8.5610   8.5948
     8.6842   8.9783   8.9961   9.0243   9.0970   9.2124   9.2291   9.3190
     9.4439   9.4776   9.5833   9.6629   9.7272   9.7631   9.7730   9.7975
     9.8533   9.9052   9.9484   9.9739  10.0424  10.1155  10.1279  10.1450
    10.2932  10.3141  10.6027  10.6322  10.6520  10.7444  10.7583  10.7802
    10.8425  10.8559  10.8678  10.8725  10.9046  10.9786  10.9920  11.0253
    11.0841  11.1215  11.1697  11.1728  11.1976  11.2331  11.3300  11.3852
    11.3950  11.4520  11.4923  11.5541  11.6162  11.6378  11.6633  11.6805
    11.6983  11.7310  11.7695  11.8119  11.8278  11.8516  11.8638  11.8831
    11.9183  11.9239  11.9663  11.9840  12.0697  12.1580  12.1808  12.2407
    12.2670  12.3501  12.4191  12.4752  12.4940  12.5965  12.6558  12.7168
    12.7710  12.8080  13.0038  13.0149  13.4600  13.4954  13.7002  13.7455
    13.7566  14.4624  15.2357  15.2405  15.5560  15.6785  15.7478  15.8573
    15.9173  15.9833  16.0077  16.1556  16.3311  16.3823  16.4391  16.5491
    16.9854  17.0088  17.2293  17.2836  17.2907  17.3308  17.3790  17.3994
    17.4120  17.4511  17.4564  17.5223  17.5587  17.5955  17.6577  17.6831
    17.6938  17.7032  17.7121  17.7183  17.7521  17.7659  17.7933  17.8059
    17.8191  17.8433  17.8745  17.9432  17.9779  18.0102  18.0322  18.0678
    18.0961  18.1303  18.1344  18.1461  18.1585  18.1665  18.1992  18.2278
    18.2472  18.3092  18.3190

          k = 0.0000-0.5000 0.0000 ( 31464 PWs)   bands (ev):

   -41.5478 -41.4918 -41.4800 -41.4607 -41.4401 -41.4395 -41.4257 -41.4211
   -41.4140 -41.4044 -41.3992 -41.3948 -41.3908 -41.3877 -41.3845 -41.3809
   -41.3767 -41.3695 -41.3619 -41.3608 -41.3568 -41.3538 -41.3473 -41.3392
   -18.0946 -18.0892 -18.0730 -18.0664 -18.0505 -18.0463 -18.0227 -18.0039
   -17.9882 -17.9831 -17.9705 -17.9626 -17.9528 -17.9442 -17.9368 -17.9250
   -17.9177 -17.9120 -17.8923 -17.8876 -17.8783 -17.8654 -17.8611 -17.8423
   -17.8374 -17.8362 -17.8227 -17.8132 -17.8060 -17.7973 -17.7850 -17.7773
   -17.7584 -17.7535 -17.7317 -17.7261 -17.7148 -17.7096 -17.7053 -17.6970
   -17.6902 -17.6761 -17.6709 -17.6680 -17.6634 -17.6561 -17.6486 -17.6442
   -17.6357 -17.6312 -17.6271 -17.6242 -17.6219 -17.6150 -17.6083 -17.6007
   -17.5939 -17.5871 -17.5761 -17.5705 -17.5611 -17.5581 -17.5556 -17.5534
   -17.5496 -17.5461 -17.5407 -17.5388 -17.5354 -17.5235 -17.5223 -17.5189
    -1.2263  -0.9903  -0.1264  -0.0170   0.0236   0.1089   0.1583   0.2286
     0.2459   0.3861   0.4364   0.5310   0.7001   0.7293   0.7537   0.8257
     0.8445   0.8781   0.8906   0.9498   0.9719   1.0045   1.0351   1.0882
     1.1161   1.1602   1.1904   1.2318   1.2401   1.2480   1.2812   1.3491
     7.4331   7.4675   7.6527   7.7380   7.9509   8.0678   8.6233   8.6666
     8.9462   9.0083   9.0519   9.1174   9.1445   9.2603   9.2876   9.3391
     9.4257   9.4620   9.4912   9.5712   9.6197   9.7200   9.7579   9.7921
     9.8034   9.8701   9.9103   9.9554  10.0159  10.0703  10.0955  10.1552
    10.1875  10.5377  10.5803  10.6103  10.6683  10.6897  10.7762  10.8058
    10.8571  10.8638  10.8728  10.9029  10.9787  11.0101  11.0185  11.0397
    11.1075  11.1400  11.1640  11.1759  11.1996  11.2644  11.2762  11.3561
    11.3980  11.4417  11.5023  11.5283  11.5431  11.5954  11.6483  11.6711
    11.7142  11.7321  11.7585  11.7688  11.8112  11.8259  11.8678  11.8940
    11.9159  11.9543  11.9939  12.0118  12.0493  12.1045  12.1373  12.2017
    12.2687  12.3732  12.4054  12.4917  12.5912  12.6678  12.6829  12.7575
    12.7882  12.7995  12.9239  12.9647  13.4982  13.5617  13.6804  13.7207
    13.8809  14.3730  15.2984  15.3037  15.4952  15.5671  15.6462  15.8222
    15.9418  15.9861  16.0592  16.1890  16.2478  16.3408  16.4629  16.5943
    17.0370  17.0649  17.2473  17.2723  17.3381  17.3749  17.4025  17.4338
    17.4569  17.5010  17.5324  17.5430  17.5631  17.6101  17.6274  17.6592
    17.6779  17.7029  17.7155  17.7476  17.7573  17.7732  17.7816  17.8079
    17.8362  17.8531  17.8769  17.8840  17.9261  17.9631  17.9861  18.0427
    18.1181  18.1240  18.1380  18.1497  18.1749  18.1782  18.1907  18.2287
    18.2512  18.2733  18.2955

          k =-0.5000 0.0000 0.5000 ( 31256 PWs)   bands (ev):

   -41.5475 -41.4921 -41.4771 -41.4538 -41.4494 -41.4482 -41.4258 -41.4168
   -41.4083 -41.4050 -41.4031 -41.3971 -41.3962 -41.3836 -41.3808 -41.3731
   -41.3718 -41.3695 -41.3661 -41.3625 -41.3591 -41.3533 -41.3450 -41.3433
   -18.0755 -18.0641 -18.0552 -18.0524 -18.0441 -18.0259 -18.0215 -18.0123
   -18.0002 -17.9960 -17.9828 -17.9713 -17.9679 -17.9648 -17.9606 -17.9498
   -17.9305 -17.9223 -17.9067 -17.9020 -17.8829 -17.8572 -17.8553 -17.8512
   -17.8448 -17.8353 -17.8266 -17.8130 -17.8088 -17.7851 -17.7688 -17.7566
   -17.7341 -17.7257 -17.7158 -17.7129 -17.7111 -17.7003 -17.6942 -17.6844
   -17.6817 -17.6796 -17.6778 -17.6713 -17.6644 -17.6569 -17.6508 -17.6462
   -17.6426 -17.6351 -17.6291 -17.6278 -17.6232 -17.6155 -17.6086 -17.6047
   -17.5952 -17.5911 -17.5869 -17.5778 -17.5746 -17.5681 -17.5671 -17.5592
   -17.5472 -17.5450 -17.5390 -17.5342 -17.5275 -17.5238 -17.5222 -17.5057
    -0.9439  -0.8629  -0.5665  -0.4541   0.1572   0.2728   0.3055   0.3687
     0.4669   0.5338   0.5556   0.5796   0.6264   0.6437   0.6973   0.7131
     0.7530   0.7779   0.7953   0.8499   0.9237   0.9671   0.9880   1.0342
     1.1164   1.1387   1.2015   1.2084   1.2278   1.2509   1.3716   1.3738
     7.5924   7.7528   7.8548   7.9734   8.0962   8.1722   8.4902   8.8050
     8.8806   8.9108   8.9808   8.9940   9.0845   9.1147   9.2458   9.2738
     9.3334   9.3519   9.4289   9.4631   9.5610   9.5817   9.6342   9.7267
     9.7756   9.9182   9.9853  10.0292  10.1316  10.1928  10.2909  10.3497
    10.3773  10.4142  10.5942  10.6162  10.6599  10.7691  10.7820  10.8833
    10.9864  11.0023  11.0249  11.0314  11.0428  11.0584  11.0716  11.1237
    11.1663  11.1891  11.2183  11.2988  11.3185  11.3876  11.4059  11.4259
    11.4503  11.4969  11.5479  11.5786  11.5912  11.6259  11.6397  11.6499
    11.6814  11.7112  11.7254  11.7339  11.7552  11.7698  11.7987  11.8259
    11.8450  11.8568  11.8843  11.9031  11.9567  11.9698  11.9983  12.0281
    12.0593  12.0877  12.1353  12.3802  12.4120  12.4795  12.6506  12.6936
    12.7678  12.7999  12.8332  12.8717  13.0203  13.0601  13.1158  13.2938
    15.3188  15.3467  15.5129  15.5225  15.7746  15.7849  15.8169  15.8360
    15.8508  16.0438  16.0860  16.2818  16.2966  16.3446  16.4452  16.4620
    16.5134  16.5894  16.6769  16.7529  16.7613  16.9883  17.0002  17.0376
    17.1325  17.1937  17.2178  17.3381  17.4422  17.5027  17.5346  17.5635
    17.5944  17.6159  17.6252  17.6583  17.6772  17.7039  17.7614  17.8180
    17.8479  17.8844  17.9610  17.9685  17.9811  18.0516  18.0788  18.1010
    18.1211  18.1416  18.1739  18.2089  18.2355  18.2506  18.3076  18.3246
    18.3438  18.4134  18.4328

          k =-0.5000 0.5000 0.0000 ( 31256 PWs)   bands (ev):

   -41.5474 -41.4922 -41.4775 -41.4584 -41.4485 -41.4396 -41.4318 -41.4150
   -41.4120 -41.4024 -41.4010 -41.3941 -41.3919 -41.3871 -41.3852 -41.3796
   -41.3705 -41.3679 -41.3626 -41.3611 -41.3601 -41.3538 -41.3487 -41.3399
   -18.0849 -18.0780 -18.0477 -18.0359 -18.0318 -18.0232 -18.0173 -18.0165
   -18.0062 -17.9887 -17.9843 -17.9786 -17.9705 -17.9532 -17.9456 -17.9407
   -17.9327 -17.9274 -17.9195 -17.9099 -17.8892 -17.8861 -17.8727 -17.8575
   -17.8521 -17.8308 -17.8179 -17.7988 -17.7827 -17.7801 -17.7589 -17.7409
   -17.7388 -17.7347 -17.7290 -17.7232 -17.7161 -17.7127 -17.7085 -17.6918
   -17.6859 -17.6803 -17.6723 -17.6683 -17.6591 -17.6555 -17.6477 -17.6413
   -17.6335 -17.6293 -17.6265 -17.6201 -17.6118 -17.6097 -17.6071 -17.6004
   -17.5915 -17.5908 -17.5860 -17.5772 -17.5718 -17.5613 -17.5579 -17.5553
   -17.5520 -17.5489 -17.5451 -17.5409 -17.5381 -17.5324 -17.5263 -17.5099
    -1.0104  -0.7679  -0.6020  -0.3730   0.0917   0.1798   0.3386   0.3440
     0.4482   0.4864   0.5909   0.6262   0.6480   0.6565   0.6745   0.7323
     0.7407   0.7847   0.8170   0.8564   0.9041   0.9503   1.0209   1.0878
     1.1034   1.1375   1.1595   1.2212   1.2540   1.2632   1.3083   1.4004
     7.6370   7.7531   7.9064   7.9469   8.1020   8.2357   8.3741   8.7884
     8.8254   8.8891   8.9138   8.9800   9.0498   9.0858   9.1728   9.3000
     9.3471   9.3692   9.4235   9.5058   9.5813   9.5915   9.7045   9.7287
     9.8717   9.8987   9.9526  10.0009  10.0944  10.1693  10.2772  10.3806
    10.4513  10.4973  10.5622  10.6120  10.6946  10.7522  10.7935  10.8680
    10.9063  10.9929  11.0014  11.0206  11.0551  11.0573  11.0849  11.0887
    11.1572  11.2007  11.2882  11.3003  11.4037  11.4319  11.4670  11.4996
    11.5195  11.5384  11.5515  11.5733  11.5999  11.6116  11.6341  11.6361
    11.6654  11.7040  11.7116  11.7298  11.7326  11.7563  11.7855  11.8122
    11.8278  11.8600  11.8778  11.8980  11.9047  11.9845  12.0081  12.0289
    12.0642  12.0847  12.1610  12.3987  12.4929  12.5584  12.6090  12.6380
    12.6757  12.6806  12.8070  12.8655  12.9828  13.0433  13.1002  13.3056
    15.2845  15.3529  15.4805  15.5277  15.6720  15.7122  15.7605  15.9110
    16.0332  16.0468  16.1058  16.2879  16.3201  16.3500  16.4235  16.5269
    16.5309  16.6834  16.6934  16.7232  16.8157  16.9805  17.0164  17.0503
    17.1791  17.2433  17.2644  17.2964  17.3511  17.4524  17.5190  17.5348
    17.5639  17.5958  17.6013  17.6615  17.6907  17.7168  17.7414  17.8002
    17.8201  17.8525  17.9219  17.9879  18.0160  18.0393  18.0683  18.0888
    18.0922  18.1034  18.1402  18.1620  18.2025  18.2745  18.3063  18.3413
    18.3548  18.3754  18.4198

     the Fermi energy is    16.2575 ev

!    total energy              =   -5634.80707473 Ry
     total all-electron energy =    -48379.660699 Ry
     estimated scf accuracy    <       0.00000063 Ry
     smearing contrib. (-TS)   =      -0.00403897 Ry
     internal energy E=F+TS    =   -5634.80303576 Ry

     The total energy is F=E-TS. E is the sum of the following terms:
     one-electron contribution =    -928.35201220 Ry
     hartree contribution      =     765.89643961 Ry
     xc contribution           =    -655.79728074 Ry
     ewald contribution        =   -2716.18810430 Ry
     one-center paw contrib.   =   -2100.36207813 Ry

     convergence has been achieved in  15 iterations

     Forces acting on atoms (cartesian axes, Ry/au):

     atom    1 type  1   force =     0.00108433   -0.00161794    0.00025890
     atom    2 type  2   force =    -0.06074015   -0.05064766   -0.05813466
     atom    3 type  1   force =     0.00018924   -0.00095116    0.00186340
     atom    4 type  2   force =     0.00309841    0.00023790    0.04870834
     atom    5 type  3   force =     0.03716983   -0.04016427    0.00022118
     atom    6 type  2   force =     0.00216174    0.06513826   -0.00026962
     atom    7 type  3   force =     0.02150403    0.01356377    0.00375164
     atom    8 type  2   force =     0.01090945   -0.05975926    0.06211987
     atom    9 type  1   force =     0.00186374    0.00202872   -0.00031801
     atom   10 type  2   force =    -0.05842223    0.04903428    0.05782926
     atom   11 type  3   force =    -0.05849136    0.03065399    0.01341780
     atom   12 type  2   force =     0.00118042    0.00432150   -0.05215155
     atom   13 type  1   force =    -0.00079920   -0.00141586   -0.00041816
     atom   14 type  2   force =     0.06394700    0.00409015    0.00031000
     atom   15 type  1   force =    -0.00067113   -0.00064272   -0.00096658
     atom   16 type  2   force =     0.05387086   -0.05880461   -0.05738931
     atom   17 type  3   force =    -0.02297271   -0.00033324    0.00431101
     atom   18 type  2   force =    -0.00542449    0.05138993   -0.06274056
     atom   19 type  3   force =    -0.00491614   -0.03044896    0.01733009
     atom   20 type  2   force =     0.00422128    0.00014895   -0.05261392
     atom   21 type  3   force =    -0.00781062    0.03806299    0.00162996
     atom   22 type  2   force =     0.00212999   -0.06164228   -0.00091762
     atom   23 type  1   force =    -0.00069451    0.00087419   -0.00026317
     atom   24 type  2   force =     0.05574851    0.06085734    0.00509992
     atom   25 type  3   force =    -0.02104921    0.02451631   -0.00384360
     atom   26 type  2   force =    -0.00296226   -0.05075362    0.06227805
     atom   27 type  3   force =    -0.05224214   -0.03358839   -0.01726560
     atom   28 type  2   force =     0.00239628   -0.00236908    0.05522228
     atom   29 type  1   force =     0.00050278    0.00106432   -0.00084646
     atom   30 type  2   force =     0.06005301   -0.00661233    0.00033532
     atom   31 type  3   force =     0.01105775   -0.01272782   -0.03558978
     atom   32 type  2   force =     0.00749659    0.06046019   -0.00544026
     atom   33 type  3   force =     0.02029008    0.00954908    0.00725880
     atom   34 type  2   force =     0.06110353   -0.00424387   -0.00656461
     atom   35 type  1   force =    -0.00085406   -0.00065559    0.00083592
     atom   36 type  2   force =    -0.00107752    0.00172962    0.00202444
     atom   37 type  3   force =    -0.03648579   -0.03455210   -0.00237792
     atom   38 type  2   force =    -0.00527501    0.06342626    0.00049613
     atom   39 type  3   force =    -0.01953525    0.01343745   -0.03835868
     atom   40 type  2   force =    -0.01254125   -0.00560473    0.06364981
     atom   41 type  3   force =     0.01807817   -0.02628730   -0.00617181
     atom   42 type  2   force =     0.05951946    0.00119056    0.00651054
     atom   43 type  3   force =     0.05473429   -0.01164735    0.01577274
     atom   44 type  2   force =    -0.00234755    0.00579800   -0.00591155
     atom   45 type  3   force =    -0.02617992    0.00177655    0.00069706
     atom   46 type  2   force =    -0.06051699    0.00443449   -0.00102069
     atom   47 type  3   force =    -0.01007916    0.01411274    0.03740406
     atom   48 type  2   force =    -0.05338546   -0.00343968   -0.06077201
     atom   49 type  3   force =     0.02244135   -0.01063568    0.00388348
     atom   50 type  2   force =     0.00692801    0.00770067   -0.00797210
     atom   51 type  3   force =     0.00229505    0.00885896    0.01460712
     atom   52 type  2   force =    -0.00437560   -0.00236912   -0.00320726
     atom   53 type  3   force =     0.00829917    0.03171405   -0.00185534
     atom   54 type  2   force =    -0.00226999   -0.06212738   -0.00003171
     atom   55 type  3   force =    -0.00863803   -0.01082184   -0.00199747
     atom   56 type  2   force =    -0.05411157    0.00128022    0.00662853
     atom   57 type  3   force =     0.02098534    0.02775944   -0.00303442
     atom   58 type  2   force =     0.00510174   -0.00183709    0.00927939
     atom   59 type  3   force =     0.04877037    0.01031009   -0.01354819
     atom   60 type  2   force =    -0.00348202   -0.00566591    0.00322717
     atom   61 type  3   force =     0.00748437   -0.00347162   -0.00083054
     atom   62 type  2   force =    -0.06050513   -0.00378715    0.00016955
     atom   63 type  3   force =    -0.01085492   -0.01389764    0.00308753
     atom   64 type  2   force =    -0.00690482    0.00400233   -0.00739613

     Total force =     0.400187     Total SCF correction =     0.002439


     Computing stress (Cartesian axis) and pressure

          total   stress  (Ry/bohr**3)                   (kbar)     P=       51.13
   0.00034001  -0.00000248  -0.00000186           50.02       -0.36       -0.27
  -0.00000248   0.00035687   0.00000057           -0.36       52.50        0.08
  -0.00000186   0.00000057   0.00034579           -0.27        0.08       50.87


     BFGS Geometry Optimization
     Energy error            =      0.0E+00 Ry
     Gradient error          =      6.5E-02 Ry/Bohr

     number of scf cycles    =   1
     number of bfgs steps    =   0

     energy             new  =   -5634.8070747321 Ry

     new trust radius        =       0.0982526609 bohr
     new conv_thr            =       0.0000010000 Ry


ATOMIC_POSITIONS (angstrom)
Al            0.0005738053       -0.0008561784        0.0001370030
N             2.0666076963       -0.0268015899       -0.0307635392
Al            0.0001001403        2.0982466679        2.0997360704
N             2.1003896063        2.0988758887        2.1245253458
Ti            2.1184194247       -0.0212540188        2.0988670423
N             0.0011439417        0.0344696829        2.0986073222
Ti            2.1101294445        2.1059276395        0.0019852824
N             0.0057730345        2.0671267594        0.0328724174
Al            0.0009862462        0.0010735527        4.1973317177
N             2.0678342853        0.0259478256        4.2281019257
Ti           -0.0309522927        2.1149713919        6.3033503937
N             2.0993746498        2.1010368373        6.2686525905
Al            2.0983270820       -0.0007492402        6.2960287195
N             0.0338392972        0.0021644144        6.2964140456
Al            2.0983948509        2.0984098867        4.1969885100
N             0.0285072326        2.0676319397        4.1671308833
Ti           -0.0121566363        4.1973236590        0.0022812884
N             2.0958794845        4.2246943779       -0.0332008743
Ti           -0.0026015072        6.2801371061        2.1079206863
N             2.1009838030        6.2963288184        2.0709079132
Ti            2.0946167991        4.2176420679        2.0996125357
N             0.0011271444        4.1648803082        2.0982644154
Al            2.0983824789        6.2967125991       -0.0001392639
N             0.0295008410        6.3284543163        0.0026987632
Ti           -0.0111387634        4.2104734725        4.1954660570
N             2.0971824383        4.1706423435        4.2304561241
Ti           -0.0276453498        6.2784757912        6.2871134396
N             2.1000180594        6.2949963347        6.3254723731
Al            2.0990160622        4.1980632128        6.2958020724
N             0.0317786838        4.1940009039        6.2964274439
Ti            2.1046015091        6.2895147281        4.1786666989
N             0.0039670266        6.3282441552        4.1946211362
Ti            4.2082370485        0.0050531563        0.0038411907
N             6.3285845966       -0.0022457615       -0.0034738426
Al            4.1970480526        2.0984030785        2.0991923484
N             6.2956797998        2.0996652739        2.0998212859
Ti            6.2769425499       -0.0182841865        2.0974916611
N             4.1947085864        0.0335637295        2.0990125382
Ti            6.2859123934        2.1058607945       -0.0202985415
N             4.1908634551        2.0957841059        0.0336820290
Ti            4.2070665567       -0.0139106422        4.1942340177
N             6.3277463417        0.0006300173        4.2009452312
Ti            4.2264641413        2.0925864855        6.3045965731
N             6.2950077293        2.1018181705        6.2931217431
Ti            6.2823961814        0.0009401103        6.2966188692
N             4.1654757863        0.0023466290        6.2957098764
Ti            6.2909163376        2.1062181403        4.2172933787
N             4.1692496332        2.0969297990        4.1653408396
Ti            4.2093754521        4.1918718395        0.0020550498
N             6.2999161457        4.2015750169       -0.0042186544
Ti            4.1987144863        6.3009379593        2.1064797538
N             6.2939345304        6.2949963182        2.0970527926
Ti            6.3006417310        4.2142823534        2.0977681949
N             4.1962987753        4.1646236087        2.0987332218
Ti            6.2916789522        6.2905233278       -0.0010570160
N             4.1688653911        6.2969274624        0.0035076656
Ti            4.2086049633        4.2121896605        4.1958942562
N             6.2989497255        4.1965278541        4.2024104398
Ti            4.2233081700        6.3017058627        6.2890806055
N             6.2944073933        6.2932517284        6.2979577440
Ti            6.3002105598        4.1956628989        6.2958104990
N             4.1654820660        4.1954959277        6.2963397217
Ti            6.2905058231        6.2888956849        4.1991338497
N             4.1938461266        6.2983679424        4.1935861380



     Writing config-only to output data dir ../output/relax_sqs_all_x/tmp_x025/TiAlN_x025_relax.save/
     NEW-OLD atomic charge density approx. for the potential

     Check: negative core charge=   -0.000028

     total cpu time spent up to now is      178.0 secs

     Self-consistent Calculation

     iteration #  1     ecut=    60.00 Ry     beta= 0.20
     Davidson diagonalization with overlap
     c_bands:  1 eigenvalues not converged
     c_bands:  2 eigenvalues not converged
     ethr =  1.00E-06,  avg # of iterations = 16.9

     total cpu time spent up to now is      206.1 secs

     total energy              =   -5634.94073980 Ry
     estimated scf accuracy    <       0.05922722 Ry

     iteration #  2     ecut=    60.00 Ry     beta= 0.20
     Davidson diagonalization with overlap
     ethr =  1.25E-05,  avg # of iterations =  1.0

     total cpu time spent up to now is      212.2 secs

     total energy              =   -5634.92970651 Ry
     estimated scf accuracy    <       0.03656979 Ry

     iteration #  3     ecut=    60.00 Ry     beta= 0.20
     Davidson diagonalization with overlap
     ethr =  7.75E-06,  avg # of iterations =  2.0

     total cpu time spent up to now is      219.2 secs

     total energy              =   -5634.92993214 Ry
     estimated scf accuracy    <       0.01241921 Ry

     iteration #  4     ecut=    60.00 Ry     beta= 0.20
     Davidson diagonalization with overlap
     ethr =  2.63E-06,  avg # of iterations =  2.0

     total cpu time spent up to now is      226.5 secs

     total energy              =   -5634.93091243 Ry
     estimated scf accuracy    <       0.00501248 Ry

     iteration #  5     ecut=    60.00 Ry     beta= 0.20
     Davidson diagonalization with overlap
     ethr =  1.06E-06,  avg # of iterations =  2.5

     total cpu time spent up to now is      234.0 secs

     total energy              =   -5634.93102960 Ry
     estimated scf accuracy    <       0.00098127 Ry

     iteration #  6     ecut=    60.00 Ry     beta= 0.20
     Davidson diagonalization with overlap
     ethr =  2.08E-07,  avg # of iterations =  7.4

     total cpu time spent up to now is      243.8 secs

     total energy              =   -5634.93114594 Ry
     estimated scf accuracy    <       0.00016865 Ry

     iteration #  7     ecut=    60.00 Ry     beta= 0.20
     Davidson diagonalization with overlap
     c_bands:  1 eigenvalues not converged
     ethr =  3.57E-08,  avg # of iterations = 16.4

     total cpu time spent up to now is      258.1 secs

     total energy              =   -5634.93117286 Ry
     estimated scf accuracy    <       0.00004622 Ry

     iteration #  8     ecut=    60.00 Ry     beta= 0.20
     Davidson diagonalization with overlap
     ethr =  9.79E-09,  avg # of iterations =  2.9

     total cpu time spent up to now is      265.4 secs

     total energy              =   -5634.93117334 Ry
     estimated scf accuracy    <       0.00001726 Ry

     iteration #  9     ecut=    60.00 Ry     beta= 0.20
     Davidson diagonalization with overlap
     ethr =  3.66E-09,  avg # of iterations =  4.2

     total cpu time spent up to now is      273.7 secs

     total energy              =   -5634.93117322 Ry
     estimated scf accuracy    <       0.00000807 Ry

     iteration # 10     ecut=    60.00 Ry     beta= 0.20
     Davidson diagonalization with overlap
     ethr =  1.71E-09,  avg # of iterations =  2.9

     total cpu time spent up to now is      281.3 secs

     total energy              =   -5634.93117361 Ry
     estimated scf accuracy    <       0.00000252 Ry

     iteration # 11     ecut=    60.00 Ry     beta= 0.20
     Davidson diagonalization with overlap
     ethr =  5.33E-10,  avg # of iterations =  5.9

     total cpu time spent up to now is      290.5 secs

     End of self-consistent calculation

          k = 0.0000 0.0000 0.0000 ( 31439 PWs)   bands (ev):

   -41.7114 -41.5678 -41.5374 -41.5347 -41.5195 -41.5113 -41.5065 -41.4942
   -41.4901 -41.4839 -41.4813 -41.4725 -41.4671 -41.4624 -41.4510 -41.4469
   -41.4427 -41.4417 -41.4362 -41.4278 -41.4267 -41.4197 -41.4152 -41.3981
   -18.2192 -18.2026 -18.1932 -18.1653 -18.1199 -18.1109 -18.0885 -18.0830
   -18.0713 -18.0517 -18.0460 -18.0200 -18.0069 -18.0022 -17.9933 -17.9795
   -17.9773 -17.9650 -17.9565 -17.9462 -17.9352 -17.9267 -17.9245 -17.9138
   -17.9068 -17.9019 -17.8957 -17.8943 -17.8858 -17.8841 -17.8741 -17.8531
   -17.8367 -17.8213 -17.8063 -17.8021 -17.7916 -17.7794 -17.7723 -17.7683
   -17.7590 -17.7572 -17.7527 -17.7467 -17.7449 -17.7403 -17.7336 -17.7249
   -17.7159 -17.7119 -17.7069 -17.6911 -17.6853 -17.6800 -17.6709 -17.6619
   -17.6535 -17.6485 -17.6387 -17.6341 -17.6292 -17.6259 -17.6206 -17.6189
   -17.6092 -17.6043 -17.6031 -17.5926 -17.5861 -17.5829 -17.5788 -17.5674
    -1.5124  -0.4348  -0.3266  -0.3063  -0.1380  -0.1003  -0.0414   0.4434
     0.4818   0.5286   0.5856   0.6192   0.6548   0.7053   0.7119   0.7277
     0.7527   0.7781   0.7950   0.8613   0.9200   0.9387   1.0006   1.0726
     1.1104   1.2330   1.2729   1.2805   1.2835   1.3090   1.3343   1.3659
     7.2090   7.2852   7.2903   7.4729   8.3848   8.8112   8.8695   8.9016
     8.9095   8.9331   8.9838   9.0034   9.0527   9.0881   9.1526   9.3640
     9.3887   9.4128   9.4186   9.6475   9.7552   9.8120   9.8385   9.8664
     9.9342   9.9696  10.0266  10.0411  10.0863  10.1133  10.1164  10.2054
    10.2684  10.3611  10.5152  10.5481  10.6161  10.6261  10.6565  10.6760
    10.7192  10.7237  10.7350  10.7573  10.7976  10.7996  10.8220  10.8256
    10.8434  10.8714  10.9342  10.9369  11.0150  11.0448  11.1043  11.1578
    11.1726  11.1856  11.2214  11.2481  11.3284  11.4019  11.5188  11.5645
    11.5760  11.6217  11.6699  11.7603  11.7984  11.8632  11.8715  11.9015
    12.3466  12.4130  12.4260  12.5288  12.5529  12.6142  12.6770  12.7161
    12.7233  12.8785  12.9119  12.9463  12.9844  13.0184  13.0624  13.0670
    13.0760  13.1009  13.1245  13.1667  13.1779  13.5273  13.6419  13.7275
    14.2174  14.2315  14.2410  14.6890  14.7231  14.7437  14.7773  14.8830
    15.0354  16.0327  16.0604  16.1695  17.1211  17.1501  17.1568  17.1868
    17.1966  17.2089  17.2209  17.2621  17.2935  17.3284  17.3650  17.3786
    17.3895  17.4227  17.4765  17.5172  17.5398  17.5811  17.6432  17.6543
    17.6652  17.6914  17.7116  17.7329  17.7514  17.7813  17.7847  17.8094
    17.8354  17.8672  17.9316  17.9640  17.9797  18.0004  18.0084  18.0112
    18.0194  18.0405  18.0460  18.0535  18.0644  18.0658  18.0730  18.0945
    18.1110  18.1224  18.1273

          k = 0.0000 0.0000-0.5000 ( 31464 PWs)   bands (ev):

   -41.7114 -41.5619 -41.5461 -41.5315 -41.5194 -41.5145 -41.5072 -41.4947
   -41.4909 -41.4897 -41.4810 -41.4675 -41.4630 -41.4590 -41.4532 -41.4474
   -41.4405 -41.4379 -41.4350 -41.4328 -41.4258 -41.4194 -41.4162 -41.4003
   -18.1898 -18.1591 -18.1504 -18.1470 -18.1284 -18.1230 -18.1054 -18.0915
   -18.0778 -18.0603 -18.0526 -18.0462 -18.0327 -18.0259 -18.0077 -18.0021
   -17.9930 -17.9880 -17.9741 -17.9685 -17.9492 -17.9463 -17.9392 -17.9310
   -17.9282 -17.9166 -17.8943 -17.8854 -17.8774 -17.8558 -17.8430 -17.8295
   -17.8179 -17.8114 -17.7998 -17.7924 -17.7746 -17.7712 -17.7640 -17.7578
   -17.7539 -17.7467 -17.7401 -17.7293 -17.7196 -17.7171 -17.7121 -17.7081
   -17.6993 -17.6955 -17.6935 -17.6858 -17.6834 -17.6819 -17.6720 -17.6671
   -17.6658 -17.6537 -17.6482 -17.6409 -17.6286 -17.6271 -17.6261 -17.6216
   -17.6193 -17.6153 -17.6097 -17.6053 -17.6015 -17.5967 -17.5915 -17.5844
    -1.1374  -1.1220  -0.0528  -0.0200  -0.0059   0.0779   0.1939   0.2024
     0.2223   0.2480   0.3803   0.4323   0.6815   0.6865   0.7708   0.8337
     0.8401   0.8676   0.8888   0.9506   0.9684   1.0071   1.0233   1.0491
     1.0629   1.0815   1.1100   1.1328   1.2680   1.3070   1.3251   1.4399
     7.4650   7.5388   7.8477   7.8686   7.9841   8.0923   8.7104   8.7436
     8.9145   8.9644   9.1226   9.1699   9.1933   9.2667   9.2751   9.2979
     9.4645   9.4904   9.4975   9.5028   9.5421   9.6022   9.6812   9.7261
     9.7948   9.8450   9.8947   9.9331   9.9446   9.9801  10.0526  10.0809
    10.1877  10.3970  10.6373  10.6498  10.6937  10.7614  10.7859  10.8062
    10.8166  10.8483  10.8793  10.9239  10.9347  10.9541  10.9837  10.9967
    11.0404  11.0492  11.0745  11.1049  11.1294  11.2521  11.3091  11.3498
    11.3569  11.4021  11.4498  11.4880  11.5596  11.6314  11.6466  11.6871
    11.7252  11.7352  11.7519  11.7776  11.8042  11.8439  11.8759  11.8988
    11.9544  11.9640  12.0162  12.0394  12.1758  12.2505  12.2632  12.2722
    12.2854  12.3625  12.4058  12.5444  12.6927  12.7625  12.7924  12.8294
    12.8347  12.8569  12.8892  12.9421  13.6054  13.6157  13.6224  13.6352
    13.9913  14.0130  15.2236  15.2330  15.3277  15.3872  15.5944  15.6348
    15.8024  15.8241  15.8624  15.8918  16.2713  16.3040  16.3615  16.3973
    16.9981  17.0401  17.1906  17.2333  17.2615  17.2762  17.3019  17.3850
    17.4158  17.4352  17.4470  17.4596  17.4853  17.5077  17.5240  17.5465
    17.5747  17.6206  17.6579  17.6662  17.6749  17.6866  17.7190  17.7279
    17.7310  17.8440  17.8561  17.8714  17.8962  17.9020  17.9297  17.9608
    18.0014  18.0407  18.0526  18.0870  18.1015  18.1150  18.1588  18.1702
    18.2126  18.2336  18.2529

          k = 0.0000-0.5000-0.5000 ( 31256 PWs)   bands (ev):

   -41.7114 -41.5586 -41.5440 -41.5377 -41.5203 -41.5135 -41.5040 -41.5007
   -41.4919 -41.4900 -41.4845 -41.4675 -41.4595 -41.4559 -41.4491 -41.4450
   -41.4394 -41.4377 -41.4344 -41.4333 -41.4264 -41.4206 -41.4199 -41.4006
   -18.1699 -18.1548 -18.1443 -18.1338 -18.1278 -18.1020 -18.0982 -18.0917
   -18.0827 -18.0773 -18.0685 -18.0613 -18.0405 -18.0302 -18.0256 -18.0187
   -18.0095 -18.0056 -17.9767 -17.9741 -17.9546 -17.9540 -17.9410 -17.9355
   -17.9209 -17.9000 -17.8738 -17.8721 -17.8599 -17.8514 -17.8333 -17.8221
   -17.8052 -17.7921 -17.7817 -17.7793 -17.7751 -17.7647 -17.7556 -17.7534
   -17.7463 -17.7416 -17.7412 -17.7378 -17.7306 -17.7232 -17.7213 -17.7105
   -17.7072 -17.7025 -17.7019 -17.6992 -17.6898 -17.6887 -17.6825 -17.6794
   -17.6678 -17.6615 -17.6562 -17.6536 -17.6479 -17.6404 -17.6333 -17.6204
   -17.6167 -17.6128 -17.6091 -17.5974 -17.5886 -17.5865 -17.5724 -17.5618
    -0.9062  -0.8277  -0.6774  -0.5344   0.2464   0.3270   0.3420   0.4176
     0.4426   0.4689   0.4926   0.5249   0.5409   0.5735   0.5982   0.6371
     0.6858   0.7669   0.7787   0.8689   0.8880   0.9603   0.9841   1.0142
     1.0626   1.1018   1.1409   1.1541   1.2792   1.3489   1.3935   1.4468
     7.6187   7.8105   7.9059   8.0355   8.2093   8.4669   8.5428   8.8081
     8.8715   8.9107   9.0034   9.0358   9.1086   9.1948   9.3027   9.3129
     9.3700   9.3825   9.4015   9.4578   9.5153   9.5822   9.6049   9.6217
     9.6814   9.7993   9.8896   9.9604  10.1275  10.1665  10.1888  10.2349
    10.3343  10.3755  10.4733  10.4832  10.7348  10.8154  10.8378  10.8827
    10.9180  10.9392  10.9650  10.9740  10.9949  11.0652  11.0746  11.1076
    11.1609  11.1860  11.1958  11.2399  11.2543  11.3139  11.3480  11.4190
    11.4385  11.4785  11.5018  11.5265  11.5362  11.5817  11.5939  11.6335
    11.6515  11.6837  11.7143  11.7355  11.7789  11.8039  11.8138  11.8601
    11.8783  11.9002  11.9450  11.9689  12.0026  12.0426  12.0844  12.1164
    12.1212  12.1711  12.2088  12.3703  12.4878  12.5323  12.6541  12.7445
    12.8197  12.8700  12.9055  12.9809  13.0202  13.1021  13.1873  13.2811
    15.1751  15.2439  15.3424  15.3862  15.6282  15.6522  15.6966  15.7476
    15.7800  15.9027  15.9219  16.1662  16.2425  16.3000  16.3296  16.3757
    16.4161  16.4481  16.5946  16.6460  16.7450  16.7710  16.8856  16.9072
    17.0467  17.2004  17.2242  17.2491  17.3273  17.4283  17.4591  17.4703
    17.4922  17.5143  17.5753  17.5890  17.6400  17.6916  17.7185  17.8103
    17.8457  17.8579  17.8836  17.9109  17.9551  17.9743  18.0025  18.0388
    18.0585  18.0648  18.1108  18.1753  18.1965  18.2273  18.2343  18.2991
    18.3172  18.3446  18.3884

          k =-0.5000-0.5000-0.5000 ( 31144 PWs)   bands (ev):

   -41.7113 -41.5587 -41.5406 -41.5370 -41.5210 -41.5127 -41.5095 -41.5052
   -41.4968 -41.4872 -41.4768 -41.4691 -41.4586 -41.4548 -41.4485 -41.4448
   -41.4395 -41.4375 -41.4337 -41.4288 -41.4265 -41.4242 -41.4209 -41.4017
   -18.1720 -18.1450 -18.1310 -18.1264 -18.1241 -18.1177 -18.1088 -18.0980
   -18.0880 -18.0764 -18.0682 -18.0561 -18.0392 -18.0291 -18.0234 -18.0220
   -18.0134 -17.9995 -17.9932 -17.9747 -17.9474 -17.9398 -17.9312 -17.9222
   -17.9198 -17.8916 -17.8785 -17.8706 -17.8581 -17.8541 -17.8420 -17.8347
   -17.8201 -17.8078 -17.7910 -17.7807 -17.7671 -17.7601 -17.7538 -17.7477
   -17.7428 -17.7392 -17.7362 -17.7310 -17.7262 -17.7251 -17.7235 -17.7209
   -17.7154 -17.7040 -17.7006 -17.6956 -17.6906 -17.6881 -17.6869 -17.6830
   -17.6763 -17.6721 -17.6588 -17.6562 -17.6539 -17.6446 -17.6327 -17.6246
   -17.6109 -17.6079 -17.5922 -17.5872 -17.5845 -17.5771 -17.5733 -17.5630
    -0.7025  -0.6338  -0.4573  -0.3765  -0.2508  -0.1564  -0.0549  -0.0313
     0.5588   0.6385   0.6746   0.6843   0.7010   0.7266   0.7583   0.7688
     0.7882   0.8043   0.8258   0.8559   0.8607   0.9003   0.9225   1.0324
     1.0653   1.0817   1.0929   1.1554   1.2059   1.2558   1.3290   1.3556
     7.9608   7.9946   8.0345   8.0953   8.2653   8.3637   8.6936   8.8191
     8.8617   8.9314   8.9687   9.0312   9.0360   9.0641   9.1597   9.1978
     9.2981   9.3478   9.4137   9.5104   9.5209   9.5682   9.6425   9.6873
    10.0085  10.0946  10.2511  10.2813  10.3352  10.3766  10.3986  10.4314
    10.5264  10.5443  10.5620  10.6019  10.6148  10.6446  10.6690  10.7011
    10.7296  10.8137  10.8353  10.8573  10.8667  10.8840  10.9532  10.9595
    10.9929  11.0179  11.0733  11.0914  11.1050  11.1183  11.1830  11.1988
    11.4560  11.4675  11.4997  11.5287  11.5415  11.5534  11.6090  11.6202
    11.6435  11.6665  11.6815  11.6976  11.7441  11.7568  11.7676  11.8014
    11.8486  11.8668  11.8933  11.9398  11.9935  12.0163  12.0493  12.1369
    12.2345  12.2799  12.3470  12.3970  12.5062  12.5648  12.6162  12.6417
    12.6643  12.7162  12.8606  12.9780  13.0171  13.0787  13.1374  13.1882
    15.6262  15.6823  15.6932  15.7341  15.7635  15.8133  15.8373  15.8668
    15.9029  15.9953  16.0137  16.0389  16.0775  16.1368  16.2289  16.2744
    16.3524  16.4185  16.4537  16.5538  16.5932  16.6241  16.6909  16.7471
    16.7869  16.8031  16.8297  16.8658  16.9136  16.9340  16.9480  17.0898
    17.2182  17.2888  17.3164  17.3396  17.3719  17.4208  17.4555  17.4830
    17.5124  17.8270  17.8865  17.9333  17.9787  18.0511  18.0805  18.1282
    18.3423  18.3714  18.3841  18.4032  18.4166  18.4290  18.4403  18.4480
    18.4655  18.4714  18.4841

          k =-0.5000 0.0000 0.0000 ( 31464 PWs)   bands (ev):

   -41.7114 -41.5658 -41.5413 -41.5321 -41.5214 -41.5118 -41.5081 -41.4959
   -41.4892 -41.4821 -41.4798 -41.4734 -41.4669 -41.4619 -41.4505 -41.4471
   -41.4446 -41.4401 -41.4312 -41.4283 -41.4246 -41.4239 -41.4159 -41.3991
   -18.1892 -18.1823 -18.1596 -18.1504 -18.1369 -18.1277 -18.1053 -18.0973
   -18.0751 -18.0594 -18.0479 -18.0338 -18.0296 -18.0130 -18.0030 -17.9948
   -17.9826 -17.9805 -17.9582 -17.9577 -17.9425 -17.9313 -17.9259 -17.9211
   -17.9066 -17.9038 -17.8960 -17.8869 -17.8784 -17.8759 -17.8608 -17.8518
   -17.8317 -17.8169 -17.8115 -17.7887 -17.7837 -17.7737 -17.7673 -17.7640
   -17.7580 -17.7466 -17.7445 -17.7354 -17.7305 -17.7287 -17.7192 -17.7137
   -17.7093 -17.7048 -17.6939 -17.6851 -17.6839 -17.6763 -17.6737 -17.6692
   -17.6576 -17.6499 -17.6475 -17.6394 -17.6334 -17.6293 -17.6225 -17.6176
   -17.6145 -17.6114 -17.6091 -17.6069 -17.5951 -17.5917 -17.5798 -17.5686
    -1.2584  -0.9241  -0.2548  -0.0567  -0.0098   0.1080   0.1973   0.2348
     0.2887   0.3298   0.3548   0.4805   0.5722   0.6680   0.7780   0.8209
     0.8501   0.8530   0.8985   0.9395   0.9576   0.9752   1.0189   1.0499
     1.0816   1.1340   1.1749   1.2147   1.2432   1.2622   1.3534   1.3833
     7.5916   7.6285   7.6537   7.8130   7.8828   8.4663   8.5107   8.6263
     8.6632   9.0182   9.0395   9.0814   9.1212   9.2378   9.2546   9.3303
     9.4372   9.4748   9.5502   9.6522   9.7021   9.7182   9.7483   9.7734
     9.8293   9.8683   9.9137   9.9334  10.0238  10.0679  10.0976  10.1384
    10.2548  10.2901  10.5713  10.5979  10.6664  10.7100  10.7215  10.7357
    10.7469  10.7584  10.8215  10.8262  10.8688  10.8890  10.9527  11.0036
    11.0343  11.0962  11.1281  11.1399  11.2576  11.2799  11.3150  11.3523
    11.4231  11.4611  11.4929  11.5952  11.6124  11.6647  11.6760  11.7219
    11.7484  11.7521  11.8060  11.8588  11.8739  11.8883  11.9072  11.9304
    11.9554  11.9897  12.0396  12.0542  12.0982  12.1415  12.1590  12.2023
    12.2369  12.3685  12.4726  12.5214  12.5437  12.6571  12.7385  12.7498
    12.8462  12.9030  12.9687  13.0029  13.5389  13.5719  13.5849  13.6352
    13.6434  14.3649  15.0210  15.0361  15.4722  15.5763  15.6710  15.7124
    15.7873  15.8407  15.8694  15.9947  16.3014  16.3262  16.4382  16.4869
    16.8419  16.8888  17.1751  17.1896  17.2072  17.2512  17.2776  17.2959
    17.3199  17.3379  17.3415  17.4210  17.4758  17.5540  17.5888  17.6031
    17.6255  17.6294  17.6323  17.6525  17.6746  17.6981  17.7420  17.7781
    17.7840  17.8171  17.8285  17.8669  17.9022  17.9339  17.9472  17.9848
    18.0165  18.0225  18.0370  18.0442  18.0727  18.0886  18.1233  18.1519
    18.1690  18.2171  18.2438

          k = 0.0000-0.5000 0.0000 ( 31464 PWs)   bands (ev):

   -41.7114 -41.5627 -41.5458 -41.5327 -41.5206 -41.5116 -41.5043 -41.4971
   -41.4905 -41.4835 -41.4800 -41.4740 -41.4722 -41.4566 -41.4480 -41.4439
   -41.4423 -41.4407 -41.4345 -41.4287 -41.4258 -41.4214 -41.4193 -41.3985
   -18.1862 -18.1668 -18.1512 -18.1451 -18.1404 -18.1354 -18.0978 -18.0789
   -18.0739 -18.0721 -18.0613 -18.0458 -18.0389 -18.0229 -18.0064 -18.0028
   -17.9948 -17.9850 -17.9685 -17.9579 -17.9522 -17.9408 -17.9236 -17.9191
   -17.9042 -17.8943 -17.8888 -17.8832 -17.8715 -17.8634 -17.8524 -17.8454
   -17.8254 -17.8150 -17.8011 -17.7956 -17.7898 -17.7785 -17.7715 -17.7601
   -17.7536 -17.7495 -17.7419 -17.7336 -17.7289 -17.7238 -17.7174 -17.7090
   -17.7073 -17.7034 -17.6905 -17.6881 -17.6800 -17.6769 -17.6702 -17.6635
   -17.6539 -17.6517 -17.6495 -17.6444 -17.6361 -17.6322 -17.6287 -17.6206
   -17.6161 -17.6140 -17.6028 -17.5997 -17.5982 -17.5888 -17.5863 -17.5814
    -1.2186  -1.0120  -0.1121  -0.0298  -0.0029   0.0747   0.1385   0.2105
     0.2207   0.3316   0.3558   0.4892   0.6381   0.6632   0.7568   0.8253
     0.8322   0.8697   0.9064   0.9413   0.9601   0.9998   1.0363   1.0582
     1.1021   1.1090   1.1192   1.2204   1.2513   1.2668   1.3193   1.3941
     7.5224   7.5761   7.7159   7.8409   8.0252   8.2025   8.5653   8.6282
     8.9745   9.0618   9.0658   9.1475   9.1498   9.2505   9.2948   9.3117
     9.3757   9.4523   9.4970   9.5483   9.5967   9.6877   9.7270   9.7607
     9.7815   9.8342   9.8688   9.9014   9.9950  10.0150  10.0648  10.0966
    10.1675  10.5415  10.5591  10.5743  10.6517  10.6719  10.7497  10.7712
    10.7929  10.8366  10.8488  10.8778  10.9119  10.9414  10.9575  10.9821
    11.0600  11.1068  11.1384  11.1469  11.2003  11.2407  11.3063  11.3468
    11.4009  11.4698  11.5309  11.5404  11.5816  11.6136  11.6534  11.7071
    11.7238  11.7763  11.8078  11.8301  11.8539  11.8591  11.8986  11.9286
    11.9486  11.9865  12.0619  12.0860  12.0916  12.1311  12.2088  12.2550
    12.2694  12.2825  12.4555  12.5184  12.6600  12.7264  12.7543  12.7969
    12.8065  12.8877  12.8923  12.9628  13.5438  13.6108  13.6175  13.6463
    13.7412  14.2373  15.1075  15.1418  15.4157  15.4383  15.5262  15.7268
    15.7783  15.8375  15.9194  16.0639  16.1655  16.2443  16.4368  16.5498
    16.9219  16.9515  17.2045  17.2390  17.2456  17.2818  17.3074  17.3329
    17.3702  17.3844  17.4336  17.4469  17.4837  17.5290  17.5664  17.5837
    17.6061  17.6376  17.6516  17.6593  17.6887  17.7106  17.7238  17.7370
    17.7656  17.7957  17.8194  17.8258  17.8771  17.8897  17.9171  17.9687
    18.0195  18.0229  18.0596  18.0734  18.0904  18.0995  18.1203  18.1606
    18.1668  18.1806  18.2107

          k =-0.5000 0.0000 0.5000 ( 31256 PWs)   bands (ev):

   -41.7113 -41.5609 -41.5426 -41.5366 -41.5185 -41.5119 -41.5090 -41.5036
   -41.4919 -41.4827 -41.4805 -41.4690 -41.4634 -41.4573 -41.4512 -41.4473
   -41.4393 -41.4391 -41.4339 -41.4296 -41.4245 -41.4240 -41.4163 -41.4014
   -18.1668 -18.1469 -18.1422 -18.1374 -18.1254 -18.1145 -18.1102 -18.0958
   -18.0771 -18.0758 -18.0606 -18.0505 -18.0424 -18.0386 -18.0326 -18.0213
   -18.0109 -18.0015 -17.9785 -17.9683 -17.9593 -17.9374 -17.9323 -17.9203
   -17.9160 -17.9055 -17.8911 -17.8732 -17.8666 -17.8582 -17.8423 -17.8177
   -17.8085 -17.8012 -17.7948 -17.7815 -17.7765 -17.7670 -17.7586 -17.7508
   -17.7498 -17.7410 -17.7378 -17.7336 -17.7274 -17.7232 -17.7157 -17.7146
   -17.7062 -17.7006 -17.6966 -17.6920 -17.6835 -17.6829 -17.6778 -17.6693
   -17.6658 -17.6640 -17.6599 -17.6519 -17.6364 -17.6314 -17.6289 -17.6264
   -17.6219 -17.6149 -17.6076 -17.6000 -17.5939 -17.5849 -17.5806 -17.5725
    -0.9298  -0.8622  -0.6047  -0.4807   0.1849   0.2235   0.3263   0.3645
     0.4461   0.5103   0.5264   0.5312   0.5471   0.5855   0.6530   0.6718
     0.6883   0.7140   0.7548   0.8307   0.9170   0.9269   0.9872   1.0369
     1.1002   1.1236   1.1711   1.2083   1.2477   1.3113   1.4107   1.4234
     7.6861   7.7854   7.9043   8.0777   8.2345   8.2667   8.6184   8.7745
     8.8751   8.9300   8.9770   9.0416   9.0787   9.1344   9.1815   9.2897
     9.3211   9.3534   9.3968   9.4156   9.5450   9.5676   9.6140   9.7124
     9.7474   9.8720   9.9308   9.9954  10.1426  10.1714  10.2641  10.3163
    10.3537  10.4003  10.5754  10.5870  10.6364  10.7566  10.7846  10.8505
    10.9113  10.9265  10.9345  10.9777  11.0029  11.0175  11.0878  11.0954
    11.1305  11.1485  11.2246  11.2800  11.3104  11.3422  11.3889  11.4254
    11.4382  11.4728  11.5098  11.5268  11.5735  11.5982  11.6101  11.6375
    11.6643  11.6819  11.6990  11.7515  11.7572  11.7958  11.8075  11.8516
    11.8864  11.9129  11.9452  11.9542  11.9651  11.9957  12.0237  12.0626
    12.1119  12.1377  12.2356  12.4539  12.4796  12.5290  12.7253  12.8205
    12.8317  12.8417  12.8816  12.9046  12.9632  13.0175  13.1616  13.2994
    15.1074  15.2345  15.3472  15.4568  15.6088  15.6404  15.6984  15.7243
    15.7510  15.9775  16.0195  16.1253  16.2169  16.2303  16.3457  16.3588
    16.4308  16.5323  16.5935  16.6434  16.6555  16.8769  16.9310  17.0165
    17.0349  17.1656  17.2369  17.2519  17.4101  17.4373  17.4472  17.4954
    17.5067  17.5162  17.5630  17.5820  17.6245  17.6775  17.6930  17.7203
    17.7677  17.7978  17.8759  17.9017  17.9432  17.9686  17.9986  18.0347
    18.0385  18.0634  18.1003  18.1644  18.1939  18.2055  18.2562  18.2741
    18.2910  18.3494  18.3863

          k =-0.5000 0.5000 0.0000 ( 31256 PWs)   bands (ev):

   -41.7113 -41.5617 -41.5403 -41.5374 -41.5215 -41.5120 -41.5112 -41.4976
   -41.4884 -41.4827 -41.4778 -41.4726 -41.4721 -41.4542 -41.4492 -41.4479
   -41.4418 -41.4365 -41.4310 -41.4290 -41.4262 -41.4240 -41.4200 -41.3995
   -18.1803 -18.1562 -18.1381 -18.1253 -18.1158 -18.1053 -18.1044 -18.0885
   -18.0817 -18.0757 -18.0641 -18.0525 -18.0490 -18.0335 -18.0282 -18.0115
   -18.0058 -17.9998 -17.9937 -17.9866 -17.9739 -17.9526 -17.9331 -17.9267
   -17.9165 -17.9016 -17.8836 -17.8633 -17.8610 -17.8469 -17.8185 -17.8139
   -17.8067 -17.7990 -17.7960 -17.7891 -17.7879 -17.7841 -17.7827 -17.7685
   -17.7562 -17.7513 -17.7380 -17.7313 -17.7209 -17.7135 -17.7103 -17.7097
   -17.6950 -17.6925 -17.6893 -17.6868 -17.6847 -17.6813 -17.6743 -17.6600
   -17.6592 -17.6550 -17.6494 -17.6438 -17.6416 -17.6357 -17.6274 -17.6244
   -17.6206 -17.6183 -17.6110 -17.6063 -17.6001 -17.5951 -17.5870 -17.5774
    -0.9907  -0.7801  -0.6272  -0.4196   0.1198   0.1684   0.3183   0.3764
     0.4069   0.4714   0.5490   0.5758   0.5849   0.6072   0.6194   0.6331
     0.6615   0.7198   0.7589   0.8476   0.8973   1.0080   1.0403   1.0755
     1.1094   1.1145   1.1856   1.2054   1.2460   1.2930   1.3382   1.4336
     7.7078   7.8149   7.9821   8.0171   8.2448   8.3226   8.5250   8.7891
     8.8345   8.8583   8.9137   8.9824   9.0427   9.0871   9.1427   9.2634
     9.2887   9.3708   9.4046   9.4536   9.5641   9.5858   9.6817   9.7192
     9.8480   9.8731   9.9513   9.9864  10.1092  10.1777  10.2169  10.3820
    10.4338  10.4425  10.5189  10.5892  10.6868  10.7467  10.7541  10.8169
    10.8568  10.9282  10.9322  10.9607  10.9885  10.9994  11.0609  11.1181
    11.1489  11.2061  11.2160  11.2529  11.3483  11.4234  11.4529  11.4717
    11.4970  11.5103  11.5168  11.5376  11.5765  11.5952  11.6251  11.6370
    11.6566  11.7040  11.7219  11.7468  11.7610  11.7765  11.8352  11.8562
    11.8743  11.8999  11.9198  11.9311  11.9776  12.0035  12.0385  12.0469
    12.1150  12.1742  12.2430  12.4167  12.5459  12.6231  12.6325  12.7166
    12.7889  12.8132  12.8343  12.9120  12.9254  12.9402  13.1191  13.2882
    15.1414  15.2012  15.2916  15.3765  15.5289  15.5753  15.7388  15.7496
    15.9227  15.9929  16.0703  16.1402  16.1916  16.2312  16.3194  16.3737
    16.4428  16.5653  16.6212  16.6821  16.7260  16.8310  16.9579  17.0365
    17.2042  17.2151  17.2455  17.3153  17.3446  17.3937  17.4358  17.4499
    17.4725  17.4990  17.5201  17.6025  17.6142  17.6674  17.6879  17.7120
    17.7343  17.7918  17.8275  17.9123  17.9458  17.9629  17.9845  17.9983
    18.0255  18.0295  18.0578  18.0869  18.1552  18.2119  18.2151  18.2817
    18.3200  18.3243  18.3510

     the Fermi energy is    16.1467 ev

!    total energy              =   -5634.93117341 Ry
     total all-electron energy =    -48379.784797 Ry
     estimated scf accuracy    <       0.00000080 Ry
     smearing contrib. (-TS)   =      -0.00314083 Ry
     internal energy E=F+TS    =   -5634.92803258 Ry

     The total energy is F=E-TS. E is the sum of the following terms:
     one-electron contribution =    -922.83923784 Ry
     hartree contribution      =     762.46872839 Ry
     xc contribution           =    -655.75147529 Ry
     ewald contribution        =   -2718.43048252 Ry
     one-center paw contrib.   =   -2100.37556531 Ry

     convergence has been achieved in  11 iterations

     Forces acting on atoms (cartesian axes, Ry/au):

     atom    1 type  1   force =     0.00641169   -0.00249261    0.00080067
     atom    2 type  2   force =    -0.02968374   -0.02162073   -0.03098514
     atom    3 type  1   force =     0.00093695   -0.01018709    0.00545409
     atom    4 type  2   force =     0.00488644    0.00057909    0.02072672
     atom    5 type  3   force =     0.01690476   -0.02439124    0.00331152
     atom    6 type  2   force =     0.00118471    0.03232656    0.00023948
     atom    7 type  3   force =     0.01188908    0.00604022    0.00181310
     atom    8 type  2   force =     0.00942551   -0.03213673    0.03594837
     atom    9 type  1   force =     0.00762323    0.00885439   -0.00043600
     atom   10 type  2   force =    -0.02864359    0.02169666    0.03102294
     atom   11 type  3   force =    -0.03245364    0.01136950    0.00097136
     atom   12 type  2   force =     0.00085785    0.00508382   -0.02016419
     atom   13 type  1   force =    -0.00947613   -0.00305125   -0.00143828
     atom   14 type  2   force =     0.02950909    0.00361684    0.00017445
     atom   15 type  1   force =    -0.00314719   -0.00308688    0.00135225
     atom   16 type  2   force =     0.02414312   -0.02788640   -0.02964742
     atom   17 type  3   force =    -0.01255708    0.00332983    0.00605393
     atom   18 type  2   force =    -0.00396167    0.02599587   -0.03561414
     atom   19 type  3   force =    -0.00099483   -0.01108193    0.00816939
     atom   20 type  2   force =     0.00253887   -0.00018743   -0.03497029
     atom   21 type  3   force =    -0.00707443    0.02505909    0.00469769
     atom   22 type  2   force =     0.00134395   -0.04085012   -0.00111877
     atom   23 type  1   force =    -0.00329715    0.00329444   -0.01243359
     atom   24 type  2   force =     0.02750748    0.03174702    0.00438772
     atom   25 type  3   force =    -0.00741289    0.00826388   -0.00583022
     atom   26 type  2   force =    -0.00206507   -0.02611785    0.03572189
     atom   27 type  3   force =    -0.02826731   -0.01333998   -0.00657056
     atom   28 type  2   force =     0.00156838   -0.00454487    0.02350860
     atom   29 type  1   force =     0.00291673    0.00271402   -0.00189877
     atom   30 type  2   force =     0.03408987   -0.00413629    0.00062082
     atom   31 type  3   force =     0.00547886   -0.00700633   -0.01360630
     atom   32 type  2   force =     0.00559647    0.03774901   -0.00409523
     atom   33 type  3   force =     0.00743414    0.00029333    0.00284247
     atom   34 type  2   force =     0.03817354   -0.00111490   -0.00263175
     atom   35 type  1   force =    -0.00163176    0.00262429    0.00769166
     atom   36 type  2   force =    -0.00410191    0.00042210    0.00280413
     atom   37 type  3   force =    -0.01766860   -0.02523120   -0.00388807
     atom   38 type  2   force =    -0.00185620    0.03995279    0.00054414
     atom   39 type  3   force =    -0.01179348    0.00671358   -0.02570331
     atom   40 type  2   force =    -0.01000850   -0.00278328    0.04029633
     atom   41 type  3   force =     0.00368145   -0.01476145   -0.00433436
     atom   42 type  2   force =     0.03692826    0.00472946    0.00251336
     atom   43 type  3   force =     0.03280384   -0.00885382    0.00270606
     atom   44 type  2   force =    -0.00058745    0.00358533   -0.00410206
     atom   45 type  3   force =    -0.00742539   -0.00123711    0.00296141
     atom   46 type  2   force =    -0.03785408    0.00382814   -0.00015046
     atom   47 type  3   force =    -0.00400952    0.00773059    0.02460744
     atom   48 type  2   force =    -0.02792921   -0.00280272   -0.03457228
     atom   49 type  3   force =     0.01167679   -0.00214236    0.00241387
     atom   50 type  2   force =     0.00501100    0.00318340   -0.00430280
     atom   51 type  3   force =    -0.00027402    0.00307049    0.00656785
     atom   52 type  2   force =    -0.00279046   -0.00051971   -0.00292448
     atom   53 type  3   force =     0.00704247    0.02511734   -0.00340952
     atom   54 type  2   force =    -0.00072274   -0.03841476   -0.00011558
     atom   55 type  3   force =    -0.00340147   -0.00609336   -0.00296802
     atom   56 type  2   force =    -0.03031044    0.00158136    0.00591486
     atom   57 type  3   force =     0.00715819    0.01457920   -0.00242109
     atom   58 type  2   force =     0.00333493   -0.00412323    0.00497252
     atom   59 type  3   force =     0.02776561    0.00759092   -0.00497838
     atom   60 type  2   force =    -0.00228560   -0.00348926    0.00187903
     atom   61 type  3   force =     0.00192224    0.00139143    0.00113846
[...]
    11.0430  11.0796  11.1156  11.1454  11.1958  11.2382  11.3244  11.3368
    11.3653  11.4806  11.5239  11.5895  11.6212  11.6540  11.6691  11.7113
    11.7838  11.8030  11.8490  11.8831  11.8983  11.9253  11.9672  11.9846
    12.0431  12.0880  12.1157  12.1166  12.1445  12.1687  12.2638  12.2812
    12.3433  12.3613  12.4624  12.5883  12.6684  12.8014  12.8326  12.8489
    12.8910  12.9023  12.9235  12.9866  13.5360  13.5497  13.6082  13.6365
    13.7079  14.0960  14.8502  14.9414  15.3071  15.3246  15.4009  15.5760
    15.6251  15.6718  15.7359  15.8627  16.1146  16.1719  16.4181  16.4647
    16.7830  16.8124  17.0203  17.1490  17.1681  17.1809  17.2273  17.2347
    17.2428  17.2623  17.3195  17.3440  17.3871  17.4408  17.4544  17.4793
    17.5071  17.5389  17.5522  17.5717  17.6175  17.6463  17.6639  17.6688
    17.6839  17.7214  17.7407  17.7634  17.7715  17.8354  17.8580  17.8687
    17.8971  17.9445  17.9731  17.9807  18.0167  18.0221  18.0348  18.0576
    18.0646  18.0921  18.1166

          k =-0.5000 0.0000 0.5000 ( 31256 PWs)   bands (ev):

   -41.9374 -41.6526 -41.6381 -41.6201 -41.6098 -41.6003 -41.5985 -41.5876
   -41.5801 -41.5757 -41.5659 -41.5587 -41.5436 -41.5328 -41.5248 -41.5184
   -41.5108 -41.4995 -41.4838 -41.4797 -41.4785 -41.4734 -41.4604 -41.4587
   -18.3240 -18.2957 -18.2836 -18.2464 -18.2317 -18.2062 -18.1986 -18.1921
   -18.1663 -18.1582 -18.1423 -18.1303 -18.1228 -18.1161 -18.1061 -18.0980
   -18.0950 -18.0819 -18.0620 -18.0437 -18.0375 -18.0231 -18.0131 -17.9959
   -17.9953 -17.9855 -17.9736 -17.9547 -17.9443 -17.9236 -17.9173 -17.8919
   -17.8835 -17.8831 -17.8765 -17.8629 -17.8545 -17.8484 -17.8400 -17.8243
   -17.8152 -17.8108 -17.8063 -17.7960 -17.7950 -17.7914 -17.7869 -17.7778
   -17.7763 -17.7687 -17.7642 -17.7609 -17.7511 -17.7474 -17.7403 -17.7372
   -17.7258 -17.7213 -17.7183 -17.7135 -17.7013 -17.6937 -17.6860 -17.6785
   -17.6738 -17.6694 -17.6642 -17.6507 -17.6482 -17.6423 -17.6340 -17.6245
    -0.9979  -0.9135  -0.6449  -0.5209   0.1132   0.1369   0.2823   0.3308
     0.3696   0.3798   0.4824   0.4913   0.5033   0.5240   0.5829   0.6084
     0.6387   0.6957   0.7675   0.8539   0.8729   0.9094   0.9441   1.0333
     1.1321   1.1559   1.1920   1.2603   1.3140   1.3686   1.4588   1.5126
     7.7362   7.8336   7.9542   8.1652   8.3044   8.3578   8.6966   8.7311
     8.8244   8.9446   8.9706   9.0428   9.0659   9.1083   9.1329   9.2877
     9.3224   9.3346   9.3704   9.3985   9.5238   9.5482   9.6016   9.7104
     9.7358   9.8304   9.8768   9.9716  10.1327  10.1618  10.2061  10.2726
    10.3083  10.3950  10.5323  10.5470  10.6042  10.6985  10.7692  10.8014
    10.8359  10.8404  10.8659  10.9265  10.9495  10.9981  11.0155  11.0674
    11.0812  11.1202  11.2063  11.2896  11.2941  11.3006  11.3471  11.3826
    11.4207  11.4694  11.4967  11.5137  11.5428  11.5654  11.5983  11.6594
    11.7082  11.7175  11.7233  11.7554  11.8124  11.8821  11.8846  11.9064
    11.9364  11.9472  12.0061  12.0225  12.0602  12.0807  12.1200  12.1463
    12.1768  12.1997  12.3325  12.5240  12.5616  12.6225  12.7548  12.7957
    12.8598  12.8714  12.9434  12.9754  13.0335  13.0490  13.1978  13.3636
    14.8358  15.0892  15.1858  15.3964  15.4087  15.4627  15.5372  15.5764
    15.6683  15.7908  15.9088  15.9359  16.0933  16.1509  16.2450  16.2766
    16.3694  16.4264  16.4517  16.5113  16.6226  16.7114  16.8284  16.9007
    16.9849  17.1013  17.1463  17.2942  17.3227  17.3349  17.3595  17.3883
    17.4104  17.4356  17.4803  17.4854  17.5656  17.5672  17.6106  17.6683
    17.6873  17.7098  17.7785  17.8219  17.8278  17.8803  17.8910  17.9388
    17.9856  17.9986  18.0260  18.0976  18.1382  18.1581  18.1796  18.2177
    18.2340  18.2795  18.2914

          k =-0.5000 0.5000 0.0000 ( 31256 PWs)   bands (ev):

   -41.9374 -41.6539 -41.6339 -41.6263 -41.6059 -41.6024 -41.5936 -41.5916
   -41.5778 -41.5755 -41.5679 -41.5589 -41.5422 -41.5344 -41.5251 -41.5165
   -41.5122 -41.4992 -41.4838 -41.4812 -41.4780 -41.4727 -41.4612 -41.4576
   -18.3281 -18.2966 -18.2839 -18.2556 -18.2116 -18.2068 -18.1903 -18.1774
   -18.1680 -18.1560 -18.1433 -18.1354 -18.1284 -18.1240 -18.1132 -18.0959
   -18.0829 -18.0790 -18.0750 -18.0589 -18.0482 -18.0305 -18.0100 -17.9961
   -17.9943 -17.9871 -17.9634 -17.9540 -17.9440 -17.9175 -17.8964 -17.8901
   -17.8806 -17.8766 -17.8730 -17.8665 -17.8579 -17.8516 -17.8479 -17.8377
   -17.8310 -17.8269 -17.8136 -17.8013 -17.7949 -17.7850 -17.7782 -17.7746
   -17.7735 -17.7654 -17.7630 -17.7511 -17.7475 -17.7433 -17.7392 -17.7323
   -17.7199 -17.7167 -17.7074 -17.7049 -17.7007 -17.6914 -17.6840 -17.6805
   -17.6749 -17.6687 -17.6665 -17.6599 -17.6576 -17.6510 -17.6339 -17.6285
    -1.0566  -0.8345  -0.6581  -0.4673   0.0669   0.0936   0.2519   0.3050
     0.3349   0.4369   0.4471   0.4671   0.5192   0.5589   0.5772   0.6124
     0.6145   0.6706   0.7495   0.8734   0.9371   0.9588   0.9721   1.0594
     1.0940   1.2119   1.2345   1.2745   1.3054   1.3687   1.4066   1.4554
     7.7404   7.8746   8.0618   8.1003   8.3548   8.3781   8.5970   8.7553
     8.7966   8.8325   8.9153   8.9604   9.0178   9.0654   9.1089   9.2261
     9.2627   9.3565   9.3839   9.4302   9.5528   9.5632   9.6490   9.7153
     9.8349   9.8641   9.9228   9.9766  10.0965  10.1533  10.1753  10.3499
    10.3866  10.4130  10.4776  10.5910  10.6172  10.6605  10.6931  10.7808
    10.8202  10.8369  10.8560  10.8905  10.9491  10.9914  11.0560  11.1051
    11.1148  11.1385  11.2387  11.2748  11.2886  11.3521  11.3686  11.4073
    11.4457  11.4597  11.4889  11.4939  11.5627  11.6298  11.6393  11.6790
    11.7011  11.7192  11.7458  11.7871  11.8241  11.8466  11.8736  11.8986
    11.9602  11.9709  12.0233  12.0357  12.0863  12.1125  12.1548  12.1641
    12.2175  12.2800  12.3561  12.4420  12.5914  12.6499  12.6715  12.7215
    12.8182  12.8440  12.8899  12.9256  12.9624  13.0053  13.1649  13.2822
    14.9233  15.0203  15.0807  15.2064  15.3240  15.5260  15.5444  15.6834
    15.7230  15.9256  15.9363  15.9906  16.0465  16.1086  16.2017  16.2479
    16.3266  16.4170  16.5139  16.6004  16.6163  16.6732  16.9086  16.9149
    17.1598  17.2148  17.2367  17.2818  17.3034  17.3438  17.3549  17.3709
    17.3815  17.4018  17.4499  17.4865  17.5699  17.5857  17.6235  17.6526
    17.6578  17.7112  17.7127  17.8250  17.8530  17.8759  17.8822  17.9047
    17.9292  17.9675  17.9929  18.0238  18.0881  18.1047  18.1690  18.2027
    18.2353  18.2698  18.3009

     the Fermi energy is    16.0141 ev

!    total energy              =   -5634.99149417 Ry
     total all-electron energy =    -48379.845118 Ry
     estimated scf accuracy    <       0.00000002 Ry
     smearing contrib. (-TS)   =      -0.00211244 Ry
     internal energy E=F+TS    =   -5634.98938173 Ry

     The total energy is F=E-TS. E is the sum of the following terms:
     one-electron contribution =    -911.20896415 Ry
     hartree contribution      =     755.97139461 Ry
     xc contribution           =    -655.73819414 Ry
     ewald contribution        =   -2723.60764175 Ry
     one-center paw contrib.   =   -2100.40597631 Ry

     convergence has been achieved in   8 iterations

     Forces acting on atoms (cartesian axes, Ry/au):

     atom    1 type  1   force =    -0.00035195    0.00014639    0.00024059
     atom    2 type  2   force =    -0.00008115   -0.00071678   -0.00049697
     atom    3 type  1   force =     0.00118060    0.00074761   -0.00025331
     atom    4 type  2   force =    -0.00015528   -0.00049850    0.00103479
     atom    5 type  3   force =     0.00152410   -0.00033726   -0.00066816
     atom    6 type  2   force =     0.00041850   -0.00015439    0.00003029
     atom    7 type  3   force =     0.00106383    0.00023061    0.00042649
     atom    8 type  2   force =    -0.00014928   -0.00005392    0.00045690
     atom    9 type  1   force =    -0.00069758   -0.00083348    0.00013422
     atom   10 type  2   force =    -0.00010999    0.00075511   -0.00046100
     atom   11 type  3   force =    -0.00079151    0.00117416    0.00098562
     atom   12 type  2   force =    -0.00047799   -0.00003501   -0.00061669
     atom   13 type  1   force =     0.00082884    0.00118110   -0.00043204
     atom   14 type  2   force =     0.00021924    0.00008363    0.00001699
     atom   15 type  1   force =     0.00022924    0.00018697    0.00015015
     atom   16 type  2   force =     0.00061037   -0.00041097    0.00022582
     atom   17 type  3   force =    -0.00031551   -0.00033577    0.00007055
     atom   18 type  2   force =     0.00012708    0.00063389   -0.00037790
     atom   19 type  3   force =    -0.00005723   -0.00096819   -0.00023165
     atom   20 type  2   force =    -0.00002611   -0.00039054    0.00008804
     atom   21 type  3   force =     0.00019998   -0.00045446   -0.00085232
     atom   22 type  2   force =    -0.00004418    0.00053736    0.00012261
     atom   23 type  1   force =    -0.00013138   -0.00027487    0.00029633
     atom   24 type  2   force =     0.00041814   -0.00000244   -0.00096598
     atom   25 type  3   force =    -0.00052362    0.00004903    0.00010270
     atom   26 type  2   force =     0.00020120   -0.00037192   -0.00032621
     atom   27 type  3   force =    -0.00077028   -0.00029293   -0.00088702
     atom   28 type  2   force =    -0.00047679    0.00029984   -0.00061291
     atom   29 type  1   force =    -0.00056340   -0.00090868   -0.00023051
     atom   30 type  2   force =    -0.00063342    0.00040359    0.00005276
     atom   31 type  3   force =     0.00020102    0.00005950   -0.00104520
     atom   32 type  2   force =     0.00002546   -0.00067446   -0.00051564
     atom   33 type  3   force =     0.00003222    0.00045353    0.00011559
     atom   34 type  2   force =    -0.00037357    0.00029030    0.00047579
     atom   35 type  1   force =    -0.00112942   -0.00039313   -0.00047570
     atom   36 type  2   force =     0.00014504   -0.00049584    0.00039110
     atom   37 type  3   force =    -0.00064142   -0.00017184    0.00030398
     atom   38 type  2   force =     0.00044172   -0.00071495    0.00025181
     atom   39 type  3   force =    -0.00038234    0.00016023   -0.00009662
     atom   40 type  2   force =     0.00055546    0.00030331    0.00013521
     atom   41 type  3   force =     0.00050106   -0.00082978    0.00038188
     atom   42 type  2   force =    -0.00070638    0.00031886    0.00008511
     atom   43 type  3   force =     0.00006680    0.00021990    0.00133323
     atom   44 type  2   force =    -0.00054434    0.00005415    0.00074376
     atom   45 type  3   force =    -0.00028748    0.00103819    0.00027466
     atom   46 type  2   force =     0.00094462   -0.00015093    0.00016973
     atom   47 type  3   force =    -0.00000366    0.00038910    0.00093352
     atom   48 type  2   force =    -0.00033315    0.00034637    0.00067452
     atom   49 type  3   force =    -0.00003516   -0.00005797    0.00028204
     atom   50 type  2   force =    -0.00012390    0.00013367    0.00048863
     atom   51 type  3   force =     0.00016022   -0.00011761   -0.00014461
     atom   52 type  2   force =     0.00026756   -0.00041718   -0.00008107
     atom   53 type  3   force =    -0.00031423   -0.00049453    0.00039904
     atom   54 type  2   force =    -0.00003337    0.00068173    0.00029114
     atom   55 type  3   force =     0.00034146    0.00002552   -0.00003269
     atom   56 type  2   force =     0.00008732   -0.00001949   -0.00105009
     atom   57 type  3   force =     0.00031136    0.00079061    0.00020444
     atom   58 type  2   force =    -0.00006602    0.00033744    0.00003084
     atom   59 type  3   force =     0.00019254   -0.00015476   -0.00089117
     atom   60 type  2   force =    -0.00046324    0.00030202   -0.00021426
     atom   61 type  3   force =     0.00004322   -0.00085817    0.00015568
     atom   62 type  2   force =     0.00012441    0.00035756    0.00022759
     atom   63 type  3   force =     0.00001262    0.00015608   -0.00043995
     atom   64 type  2   force =     0.00031913   -0.00025661   -0.00038444

     Total force =     0.006922     Total SCF correction =     0.000464


     Computing stress (Cartesian axis) and pressure

          total   stress  (Ry/bohr**3)                   (kbar)     P=       39.16
   0.00026773  -0.00000534   0.00000476           39.38       -0.78        0.70
  -0.00000534   0.00026954  -0.00000053           -0.78       39.65       -0.08
   0.00000476  -0.00000053   0.00026142            0.70       -0.08       38.46

     Energy error            =      1.5E-04 Ry
     Gradient error          =      1.5E-03 Ry/Bohr

     number of scf cycles    =   8
     number of bfgs steps    =   7

     energy             old  =   -5634.9913471067 Ry
     energy             new  =   -5634.9914941685 Ry

     CASE: energy            _new < energy            _old

     new trust radius        =       0.0047019911 bohr

     The maximum number of steps has been reached.

     End of BFGS Geometry Optimization

ATOMIC_POSITIONS (angstrom)
Al            0.0311627763       -0.0006839162        0.0107175498
N             2.0408625758       -0.0407212822       -0.0713464375
Al            0.0041102433        2.0501687336        2.1137016581
N             2.1108758864        2.0963668735        2.1427024905
Ti            2.1405769816       -0.0630164807        2.1050434558
N             0.0130696334        0.0594260140        2.1035343484
Ti            2.1291956014        2.1223027878        0.0055922097
N             0.0226878687        2.0295914992        0.0791905314
Al            0.0249639999        0.0329161618        4.1924289654
N             2.0406872785        0.0426791588        4.2647069516
Ti           -0.0679790213        2.1254548681        6.3075298967
N             2.0969166578        2.1112381402        6.2640883576
Al            2.0592671962       -0.0050867243        6.2900544620
N             0.0595242804        0.0139849688        6.2972499965
Al            2.0908146867        2.0890173664        4.2071830398
N             0.0516591401        2.0420462570        4.1381039546
Ti           -0.0229967207        4.2010905350        0.0228370974
N             2.0875923340        4.2537570668       -0.0784687201
Ti            0.0051980012        6.2695759658        2.1202973191
N             2.1032436363        6.2972112621        2.0047656115
Ti            2.0737295614        4.2585590911        2.1096850176
N             0.0033837808        4.0910490671        2.0976348631
Al            2.0799749724        6.3068484894       -0.0701793485
N             0.0565889338        6.3669344284        0.0049673245
Ti           -0.0080604755        4.2215383172        4.1756877182
N             2.0920193403        4.1370479250        4.2765277939
Ti           -0.0664939142        6.2684466567        6.2719912820
N             2.0972833664        6.2831797254        6.3293817798
Al            2.1063286126        4.2005965426        6.2917277488
N             0.0678409617        4.1910194844        6.2982295075
Ti            2.1054908703        6.2744213470        4.1647667003
N             0.0136574443        6.3891318739        4.1895524355
Ti            4.2185489530       -0.0062131621        0.0071862784
N             6.3915642697       -0.0063139380       -0.0039958427
Al            4.1878134551        2.1106852480        2.1320376383
N             6.2799055708        2.0986970889        2.1087107862
Ti            6.2587508959       -0.0473004564        2.0894114229
N             4.1944832763        0.0840742927        2.1023351482
Ti            6.2671969373        2.1080494149       -0.0350746347
N             4.1758459301        2.0922054642        0.0875427164
Ti            4.2116749307       -0.0325924714        4.1912079413
N             6.3841036454        0.0068660445        4.2030057766
Ti            4.2627791334        2.0713996777        6.3002145781
N             6.2968644852        2.1077406546        6.2891020508
Ti            6.2807253171        0.0017014990        6.3057158487
N             4.1016631478        0.0089945603        6.2959129001
Ti            6.2797638890        2.1152590527        4.2369796357
N             4.1334080251        2.0879895090        4.1343816284
Ti            4.2214780734        4.2018748152        0.0095618945
N             6.3074504975        4.2056657852       -0.0089167352
Ti            4.1897212896        6.3030978207        2.1087510199
N             6.2909548199        6.2963997373        2.0919163653
Ti            6.3237218463        4.2431431058        2.0909039086
N             4.1949821840        4.1171808021        2.1014588143
Ti            6.2884134218        6.2888797880       -0.0113231375
N             4.1269466889        6.3021101397        0.0091102507
Ti            4.2078621973        4.2309825075        4.1921605160
N             6.3043592383        4.1917421426        4.2090355714
Ti            4.2581392317        6.3216487185        6.2844722337
N             6.2933796969        6.2914504953        6.3000604317
Ti            6.2981452695        4.1992458122        6.3009408893
N             4.1280992480        4.1863877228        6.2984998990
Ti            6.2912094043        6.2801111284        4.2114563885
N             4.1868685403        6.3027447962        4.1873522562



     Writing config-only to output data dir ../output/relax_sqs_all_x/tmp_x025/TiAlN_x025_relax.save/
     NEW-OLD atomic charge density approx. for the potential

     Check: negative core charge=   -0.000028
 
     init_run     :      3.44s CPU      3.74s WALL (       1 calls)
     electrons    :    767.99s CPU    782.22s WALL (       8 calls)
     update_pot   :      2.11s CPU      2.14s WALL (       8 calls)
     forces       :     14.87s CPU     15.25s WALL (       8 calls)
     stress       :    151.03s CPU    152.31s WALL (       8 calls)

     Called by init_run:
     wfcinit      :      2.98s CPU      3.09s WALL (       1 calls)
     potinit      :      0.21s CPU      0.22s WALL (       1 calls)
     hinit0       :      0.12s CPU      0.26s WALL (       1 calls)

     Called by electrons:
     c_bands      :    678.51s CPU    689.43s WALL (      82 calls)
     sum_band     :     65.86s CPU     67.68s WALL (      82 calls)
     v_of_rho     :      3.08s CPU      3.13s WALL (      88 calls)
     newd         :      5.34s CPU      6.20s WALL (      88 calls)
     PAW_pot      :     15.01s CPU     15.20s WALL (      96 calls)
     mix_rho      :      3.50s CPU      3.78s WALL (      82 calls)

     Called by c_bands:
     init_us_2    :      7.43s CPU      7.51s WALL (     378 calls)
     init_us_2:cp :      7.42s CPU      7.50s WALL (     378 calls)
     cegterg      :    608.68s CPU    619.17s WALL (     166 calls)

     Called by *egterg:
     cdiaghg      :     77.74s CPU     78.96s WALL (     928 calls)
     h_psi        :    275.02s CPU    279.11s WALL (     951 calls)
     s_psi        :     70.35s CPU     70.94s WALL (     951 calls)
     g_psi        :      1.40s CPU      1.41s WALL (     783 calls)

     Called by h_psi:
     h_psi:calbec :     66.54s CPU     67.00s WALL (     951 calls)
     vloc_psi     :    134.85s CPU    136.97s WALL (     951 calls)
     add_vuspsi   :     71.20s CPU     71.91s WALL (     951 calls)

     General routines
     calbec       :    105.36s CPU    106.10s WALL (    1211 calls)
     fft          :      1.72s CPU      1.88s WALL (    1180 calls)
     ffts         :      1.82s CPU      1.85s WALL (    1565 calls)
     fftw         :    137.63s CPU    139.80s WALL (  291838 calls)
     davcio       :      0.00s CPU      0.16s WALL (       2 calls)
 
     Parallel routines
 
     PWSCF        :  15m44.97s CPU  16m 2.42s WALL

 
   This run was terminated on:   3:43:23  11May2026            

=------------------------------------------------------------------------------=
   JOB DONE.
=------------------------------------------------------------------------------=
