
     Program PWSCF v.7.1 starts on 11May2026 at  3: 6:27 

     This program is part of the open-source Quantum ESPRESSO suite
     for quantum simulation of materials; please cite
         "P. Giannozzi et al., J. Phys.:Condens. Matter 21 395502 (2009);
         "P. Giannozzi et al., J. Phys.:Condens. Matter 29 465901 (2017);
         "P. Giannozzi et al., J. Chem. Phys. 152 154105 (2020);
          URL http://www.quantum-espresso.org", 
     in publications or presentations arising from this work. More details at
     http://www.quantum-espresso.org/quote

     Parallel version (MPI & OpenMP), running on      32 processor cores
     Number of MPI processes:                32
     Threads/MPI process:                     1

     MPI processes distributed on     1 nodes
     90983 MiB available memory on the printing compute node when the environment starts
 
     Reading input from relax_sqs_x0125.in

     Current dimensions of program PWSCF are:
     Max number of different atomic species (ntypx) = 10
     Max number of k-points (npk) = 150000
     Max angular momentum in pseudopotentials (lmaxx) =  4
     file Al.pbe-n-kjpaw_psl.1.0.0.UPF: wavefunction(s)  3S 3P renormalized
     file N.pbe-n-kjpaw_psl.1.0.0.UPF: wavefunction(s)  2S renormalized
     file Ti.pbe-spn-kjpaw_psl.1.0.0.UPF: wavefunction(s)  3S 3P 3D renormalized
 
     K-points division:     npool     =       4
     R & G space division:  proc/nbgrp/npool/nimage =       8
     Subspace diagonalization in iterative solution of the eigenvalue problem:
     one sub-group per band group will be used
     scalapack distributed-memory algorithm (size of sub-group:  2*  2 procs)

 
     Parallelization info
     --------------------
     sticks:   dense  smooth     PW     G-vecs:    dense   smooth      PW
     Min         607     607    164                31801    31801    4531
     Max         608     608    166                31804    31804    4535
     Sum        4857    4857   1321               254415   254415   36257
 
     Using Slab Decomposition
 


     bravais-lattice index     =            0
     lattice parameter (alat)  =      15.9446  a.u.
     unit-cell volume          =    4053.5726 (a.u.)^3
     number of atoms/cell      =           64
     number of atomic types    =            3
     number of electrons       =       508.00
     number of Kohn-Sham states=          305
     kinetic-energy cutoff     =      60.0000  Ry
     charge density cutoff     =     240.0000  Ry
     scf convergence threshold =      1.0E-06
     mixing beta               =       0.2000
     number of iterations used =            8  local-TF  mixing
     energy convergence thresh.=      1.0E-04
     force convergence thresh. =      1.0E-03
     Exchange-correlation= SLA  PW   PBX  PBC
                           (   1   4   3   4   0   0   0)
     nstep                     =            8


     celldm(1)=  15.944564  celldm(2)=   0.000000  celldm(3)=   0.000000
     celldm(4)=   0.000000  celldm(5)=   0.000000  celldm(6)=   0.000000

     crystal axes: (cart. coord. in units of alat)
               a(1) = (   1.000000   0.000000   0.000000 )  
               a(2) = (   0.000000   1.000000   0.000000 )  
               a(3) = (   0.000000   0.000000   1.000000 )  

     reciprocal axes: (cart. coord. in units 2 pi/alat)
               b(1) = (  1.000000  0.000000  0.000000 )  
               b(2) = (  0.000000  1.000000  0.000000 )  
               b(3) = (  0.000000  0.000000  1.000000 )  


     PseudoPot. # 1 for Al read from file:
     ../../pseudo/Al.pbe-n-kjpaw_psl.1.0.0.UPF
     MD5 check sum: 502b6b27b9c6270cab5dd1084b96fa6d
     Pseudo is Projector augmented-wave + core cor, Zval =  3.0
     Generated using &quot;atomic&quot; code by A. Dal Corso  v.6.3
     Shape of augmentation charge: PSQ
     Using radial grid of 1135 points,  6 beta functions with: 
                l(1) =   0
                l(2) =   0
                l(3) =   1
                l(4) =   1
                l(5) =   2
                l(6) =   2
     Q(r) pseudized with 0 coefficients 


     PseudoPot. # 2 for N  read from file:
     ../../pseudo/N.pbe-n-kjpaw_psl.1.0.0.UPF
     MD5 check sum: 14c48229446f9f2d411169a3abcbc3fa
     Pseudo is Projector augmented-wave + core cor, Zval =  5.0
     Generated using &quot;atomic&quot; code by A. Dal Corso  v.6.3
     Shape of augmentation charge: PSQ
     Using radial grid of 1085 points,  4 beta functions with: 
                l(1) =   0
                l(2) =   0
                l(3) =   1
                l(4) =   1
     Q(r) pseudized with 0 coefficients 


     PseudoPot. # 3 for Ti read from file:
     ../../pseudo/Ti.pbe-spn-kjpaw_psl.1.0.0.UPF
     MD5 check sum: 01f69b0d8ba4438b2e03ac6ea4af1c0b
     Pseudo is Projector augmented-wave + core cor, Zval = 12.0
     Generated using &quot;atomic&quot; code by A. Dal Corso  v.6.2.2
     Shape of augmentation charge: PSQ
     Using radial grid of 1177 points,  6 beta functions with: 
                l(1) =   0
                l(2) =   0
                l(3) =   1
                l(4) =   1
                l(5) =   2
                l(6) =   2
     Q(r) pseudized with 0 coefficients 


     atomic species   valence    mass     pseudopotential
        Al             3.00    26.98200     Al( 1.00)
        N              5.00    14.00700     N ( 1.00)
        Ti            12.00    47.86700     Ti( 1.00)

     No symmetry found



   Cartesian axes

     site n.     atom                  positions (alat units)
         1           Ti  tau(   1) = (   0.0000000   0.0000000   0.0000000  )
         2           N   tau(   2) = (   0.2500000   0.0000000   0.0000000  )
         3           Ti  tau(   3) = (   0.0000000   0.2500000   0.2500000  )
         4           N   tau(   4) = (   0.2500000   0.2500000   0.2500000  )
         5           Ti  tau(   5) = (   0.2500000   0.0000000   0.2500000  )
         6           N   tau(   6) = (   0.0000000   0.0000000   0.2500000  )
         7           Ti  tau(   7) = (   0.2500000   0.2500000   0.0000000  )
         8           N   tau(   8) = (   0.0000000   0.2500000   0.0000000  )
         9           Ti  tau(   9) = (   0.0000000   0.0000000   0.5000000  )
        10           N   tau(  10) = (   0.2500000   0.0000000   0.5000000  )
        11           Al  tau(  11) = (   0.0000000   0.2500000   0.7500000  )
        12           N   tau(  12) = (   0.2500000   0.2500000   0.7500000  )
        13           Ti  tau(  13) = (   0.2500000   0.0000000   0.7500000  )
        14           N   tau(  14) = (   0.0000000   0.0000000   0.7500000  )
        15           Al  tau(  15) = (   0.2500000   0.2500000   0.5000000  )
        16           N   tau(  16) = (   0.0000000   0.2500000   0.5000000  )
        17           Ti  tau(  17) = (   0.0000000   0.5000000   0.0000000  )
        18           N   tau(  18) = (   0.2500000   0.5000000   0.0000000  )
        19           Ti  tau(  19) = (   0.0000000   0.7500000   0.2500000  )
        20           N   tau(  20) = (   0.2500000   0.7500000   0.2500000  )
        21           Ti  tau(  21) = (   0.2500000   0.5000000   0.2500000  )
        22           N   tau(  22) = (   0.0000000   0.5000000   0.2500000  )
        23           Ti  tau(  23) = (   0.2500000   0.7500000   0.0000000  )
        24           N   tau(  24) = (   0.0000000   0.7500000   0.0000000  )
        25           Ti  tau(  25) = (   0.0000000   0.5000000   0.5000000  )
        26           N   tau(  26) = (   0.2500000   0.5000000   0.5000000  )
        27           Ti  tau(  27) = (   0.0000000   0.7500000   0.7500000  )
        28           N   tau(  28) = (   0.2500000   0.7500000   0.7500000  )
        29           Ti  tau(  29) = (   0.2500000   0.5000000   0.7500000  )
        30           N   tau(  30) = (   0.0000000   0.5000000   0.7500000  )
        31           Ti  tau(  31) = (   0.2500000   0.7500000   0.5000000  )
        32           N   tau(  32) = (   0.0000000   0.7500000   0.5000000  )
        33           Al  tau(  33) = (   0.5000000   0.0000000   0.0000000  )
        34           N   tau(  34) = (   0.7500000   0.0000000   0.0000000  )
        35           Al  tau(  35) = (   0.5000000   0.2500000   0.2500000  )
        36           N   tau(  36) = (   0.7500000   0.2500000   0.2500000  )
        37           Ti  tau(  37) = (   0.7500000   0.0000000   0.2500000  )
        38           N   tau(  38) = (   0.5000000   0.0000000   0.2500000  )
        39           Ti  tau(  39) = (   0.7500000   0.2500000   0.0000000  )
        40           N   tau(  40) = (   0.5000000   0.2500000   0.0000000  )
        41           Ti  tau(  41) = (   0.5000000   0.0000000   0.5000000  )
        42           N   tau(  42) = (   0.7500000   0.0000000   0.5000000  )
        43           Ti  tau(  43) = (   0.5000000   0.2500000   0.7500000  )
        44           N   tau(  44) = (   0.7500000   0.2500000   0.7500000  )
        45           Ti  tau(  45) = (   0.7500000   0.0000000   0.7500000  )
        46           N   tau(  46) = (   0.5000000   0.0000000   0.7500000  )
        47           Ti  tau(  47) = (   0.7500000   0.2500000   0.5000000  )
        48           N   tau(  48) = (   0.5000000   0.2500000   0.5000000  )
        49           Ti  tau(  49) = (   0.5000000   0.5000000   0.0000000  )
        50           N   tau(  50) = (   0.7500000   0.5000000   0.0000000  )
        51           Ti  tau(  51) = (   0.5000000   0.7500000   0.2500000  )
        52           N   tau(  52) = (   0.7500000   0.7500000   0.2500000  )
        53           Ti  tau(  53) = (   0.7500000   0.5000000   0.2500000  )
        54           N   tau(  54) = (   0.5000000   0.5000000   0.2500000  )
        55           Ti  tau(  55) = (   0.7500000   0.7500000   0.0000000  )
        56           N   tau(  56) = (   0.5000000   0.7500000   0.0000000  )
        57           Ti  tau(  57) = (   0.5000000   0.5000000   0.5000000  )
        58           N   tau(  58) = (   0.7500000   0.5000000   0.5000000  )
        59           Ti  tau(  59) = (   0.5000000   0.7500000   0.7500000  )
        60           N   tau(  60) = (   0.7500000   0.7500000   0.7500000  )
        61           Ti  tau(  61) = (   0.7500000   0.5000000   0.7500000  )
        62           N   tau(  62) = (   0.5000000   0.5000000   0.7500000  )
        63           Ti  tau(  63) = (   0.7500000   0.7500000   0.5000000  )
        64           N   tau(  64) = (   0.5000000   0.7500000   0.5000000  )

     number of k points=     8  Gaussian smearing, width (Ry)=  0.0050
                       cart. coord. in units 2pi/alat
        k(    1) = (   0.0000000   0.0000000   0.0000000), wk =   0.2500000
        k(    2) = (   0.0000000   0.0000000  -0.5000000), wk =   0.2500000
        k(    3) = (   0.0000000  -0.5000000  -0.5000000), wk =   0.2500000
        k(    4) = (  -0.5000000  -0.5000000  -0.5000000), wk =   0.2500000
        k(    5) = (  -0.5000000   0.0000000   0.0000000), wk =   0.2500000
        k(    6) = (   0.0000000  -0.5000000   0.0000000), wk =   0.2500000
        k(    7) = (  -0.5000000   0.0000000   0.5000000), wk =   0.2500000
        k(    8) = (  -0.5000000   0.5000000   0.0000000), wk =   0.2500000

     Dense  grid:   254415 G-vectors     FFT dimensions: (  80,  80,  80)

     Estimated max dynamical RAM per process >     248.43 MB

     Estimated total dynamical RAM >       7.58 GB

     Check: negative core charge=   -0.000031

     Initial potential from superposition of free atoms

     starting charge     507.9492, renormalised to     508.0000
     Starting wfcs are  424 randomized atomic wfcs
     Checking if some PAW data can be deallocated... 

     total cpu time spent up to now is        4.2 secs

     Self-consistent Calculation

     iteration #  1     ecut=    60.00 Ry     beta= 0.20
     Davidson diagonalization with overlap
     ethr =  1.00E-02,  avg # of iterations =  2.0

     total cpu time spent up to now is       12.6 secs

     total energy              =   -6214.23640932 Ry
     estimated scf accuracy    <      21.71545107 Ry

     iteration #  2     ecut=    60.00 Ry     beta= 0.20
     Davidson diagonalization with overlap
     ethr =  4.27E-03,  avg # of iterations =  1.0

     total cpu time spent up to now is       19.5 secs

     total energy              =   -6208.80067120 Ry
     estimated scf accuracy    <      12.41507274 Ry

     iteration #  3     ecut=    60.00 Ry     beta= 0.20
     Davidson diagonalization with overlap
     ethr =  2.44E-03,  avg # of iterations =  4.0

     total cpu time spent up to now is       29.5 secs

     total energy              =   -6211.93028421 Ry
     estimated scf accuracy    <       1.08176530 Ry

     iteration #  4     ecut=    60.00 Ry     beta= 0.20
     Davidson diagonalization with overlap
     ethr =  2.13E-04,  avg # of iterations =  3.8

     total cpu time spent up to now is       39.0 secs

     total energy              =   -6212.09021811 Ry
     estimated scf accuracy    <       0.22942279 Ry

     iteration #  5     ecut=    60.00 Ry     beta= 0.20
     Davidson diagonalization with overlap
     ethr =  4.52E-05,  avg # of iterations =  5.5

     total cpu time spent up to now is       51.8 secs

     total energy              =   -6211.87567494 Ry
     estimated scf accuracy    <       1.04891165 Ry

     iteration #  6     ecut=    60.00 Ry     beta= 0.20
     Davidson diagonalization with overlap
     ethr =  4.52E-05,  avg # of iterations =  9.8

     total cpu time spent up to now is       67.7 secs

     total energy              =   -6212.08463965 Ry
     estimated scf accuracy    <       0.02219652 Ry

     iteration #  7     ecut=    60.00 Ry     beta= 0.20
     Davidson diagonalization with overlap
     ethr =  4.37E-06,  avg # of iterations = 17.9

     total cpu time spent up to now is       86.1 secs

     total energy              =   -6212.08239074 Ry
     estimated scf accuracy    <       0.01116540 Ry

     iteration #  8     ecut=    60.00 Ry     beta= 0.20
     Davidson diagonalization with overlap
     ethr =  2.20E-06,  avg # of iterations =  2.8

     total cpu time spent up to now is       95.2 secs

     total energy              =   -6212.08339926 Ry
     estimated scf accuracy    <       0.00127081 Ry

     iteration #  9     ecut=    60.00 Ry     beta= 0.20
     Davidson diagonalization with overlap
     ethr =  2.50E-07,  avg # of iterations =  5.5

     total cpu time spent up to now is      105.4 secs

     total energy              =   -6212.08352479 Ry
     estimated scf accuracy    <       0.00023959 Ry

     iteration # 10     ecut=    60.00 Ry     beta= 0.20
     Davidson diagonalization with overlap
     ethr =  4.72E-08,  avg # of iterations =  6.6

     total cpu time spent up to now is      118.0 secs

     total energy              =   -6212.08357294 Ry
     estimated scf accuracy    <       0.00004755 Ry

     iteration # 11     ecut=    60.00 Ry     beta= 0.20
     Davidson diagonalization with overlap
     ethr =  9.36E-09,  avg # of iterations =  4.4

     total cpu time spent up to now is      128.9 secs

     total energy              =   -6212.08356588 Ry
     estimated scf accuracy    <       0.00009726 Ry

     iteration # 12     ecut=    60.00 Ry     beta= 0.20
     Davidson diagonalization with overlap
     ethr =  9.36E-09,  avg # of iterations =  2.0

     total cpu time spent up to now is      137.1 secs

     total energy              =   -6212.08356357 Ry
     estimated scf accuracy    <       0.00002924 Ry

     iteration # 13     ecut=    60.00 Ry     beta= 0.20
     Davidson diagonalization with overlap
     ethr =  5.75E-09,  avg # of iterations =  2.0

     total cpu time spent up to now is      144.9 secs

     total energy              =   -6212.08356230 Ry
     estimated scf accuracy    <       0.00000998 Ry

     iteration # 14     ecut=    60.00 Ry     beta= 0.20
     Davidson diagonalization with overlap
     ethr =  1.96E-09,  avg # of iterations =  4.9

     total cpu time spent up to now is      154.9 secs

     End of self-consistent calculation

          k = 0.0000 0.0000 0.0000 ( 31799 PWs)   bands (ev):

   -41.0907 -41.0493 -41.0436 -41.0374 -41.0343 -41.0250 -41.0227 -41.0207
   -41.0161 -41.0117 -41.0026 -41.0005 -40.9932 -40.9917 -40.9901 -40.9892
   -40.9835 -40.9830 -40.9806 -40.9755 -40.9693 -40.9678 -40.9652 -40.9627
   -40.9546 -40.9511 -40.9493 -40.9470 -17.7381 -17.7243 -17.7205 -17.7049
   -17.6171 -17.6074 -17.5944 -17.5636 -17.5565 -17.5554 -17.5502 -17.5470
   -17.5442 -17.5400 -17.5368 -17.5283 -17.5229 -17.5101 -17.5007 -17.4667
   -17.4641 -17.4602 -17.4527 -17.4476 -17.4390 -17.4289 -17.4233 -17.4216
   -17.3956 -17.3874 -17.3838 -17.3779 -17.3748 -17.3593 -17.3512 -17.3497
   -17.3447 -17.3424 -17.3391 -17.3338 -17.3311 -17.3279 -17.3261 -17.3204
   -17.3127 -17.3090 -17.3057 -17.3045 -17.3001 -17.2885 -17.2732 -17.2655
   -17.2494 -17.2451 -17.2382 -17.2273 -17.2194 -17.2099 -17.2018 -17.1922
   -17.1853 -17.1836 -17.1814 -17.1770 -17.1744 -17.1701 -17.1685 -17.1677
   -17.1623 -17.1580 -17.1554 -17.1516 -17.1444 -17.1423 -17.1375 -17.1284
   -17.1270 -17.1252 -17.1227 -17.1198 -17.1174 -17.0969 -17.0957 -17.0883
    -0.7152   0.2773   0.3776   0.5166   0.5634   0.6192   0.6573   0.9878
     1.0415   1.0739   1.2548   1.3017   1.3091   1.3291   1.3320   1.3613
     1.4303   1.4492   1.4775   1.4881   1.4972   1.5179   1.5449   1.5762
     1.5873   1.6065   1.6242   1.6374   1.9408   1.9613   1.9944   2.0170
     7.8104   8.0617   8.0973   8.7012   8.7026   9.2680   9.3030   9.5150
     9.7825   9.7971   9.8259   9.8301   9.8529   9.8752   9.8956   9.8989
    10.0640  10.1453  10.1893  10.3623  10.4159  10.4650  10.5484  10.6035
    10.6513  10.6781  10.7008  10.7885  10.8057  10.8675  11.0149  11.1267
    11.1468  11.1623  11.1849  11.1908  11.1989  11.2308  11.2447  11.2611
    11.2698  11.2746  11.2980  11.3128  11.3161  11.3328  11.3500  11.3705
    11.3867  11.4008  11.4060  11.4604  11.4707  11.4818  11.4882  11.4939
    11.5091  11.5253  11.5570  11.6166  11.6363  11.6855  11.7423  11.7566
    11.7856  11.8702  11.8852  11.9279  11.9655  12.0701  12.1053  12.1145
    12.1369  12.2225  12.2286  13.0897  13.1685  13.2135  13.2779  13.2907
    13.4109  13.4174  13.4414  13.4571  13.4665  13.5173  13.5350  13.5419
    13.5552  13.5842  13.5947  13.5992  13.6439  13.8879  13.9648  14.0177
    14.7076  14.7107  14.7128  14.8806  14.8967  15.0448  15.0584  15.2080
    15.2379  16.3584  16.4013  16.4831  17.5260  17.6411  17.6664  17.6735
    17.6745  17.6809  17.6890  17.6919  17.6926  17.6953  17.6984  17.7026
    17.7049  17.7062  17.7076  17.7455  17.8081  17.8749  17.9239  17.9376
    17.9498  17.9635  17.9676  18.0219  18.0252  18.0598  18.0784  18.1211
    18.1656  18.2237  18.2797  18.3369  18.4486  18.4544  18.4586  18.4614
    18.4659  18.4675  18.4778  18.4792  18.4804  18.4831  18.4872  18.4960
    18.5079  18.5101  18.5296  18.5313  18.5424  18.5579  18.5608  18.5659
    18.5772

          k = 0.0000 0.0000-0.5000 ( 31864 PWs)   bands (ev):

   -41.0769 -41.0709 -41.0463 -41.0347 -41.0318 -41.0292 -41.0236 -41.0168
   -41.0164 -41.0080 -41.0034 -41.0027 -40.9986 -40.9909 -40.9883 -40.9855
   -40.9797 -40.9778 -40.9761 -40.9745 -40.9716 -40.9679 -40.9631 -40.9591
   -40.9577 -40.9547 -40.9525 -40.9499 -17.6713 -17.6665 -17.6625 -17.6556
   -17.6510 -17.6456 -17.6366 -17.6319 -17.5701 -17.5658 -17.5629 -17.5553
   -17.5544 -17.5517 -17.5449 -17.5365 -17.5327 -17.5225 -17.5102 -17.5085
   -17.4778 -17.4704 -17.4641 -17.4604 -17.4557 -17.4442 -17.4374 -17.4280
   -17.4230 -17.4108 -17.4071 -17.3997 -17.3893 -17.3847 -17.3678 -17.3478
   -17.3300 -17.3242 -17.3181 -17.3154 -17.3118 -17.2908 -17.2821 -17.2789
   -17.2751 -17.2630 -17.2475 -17.2426 -17.2418 -17.2386 -17.2333 -17.2308
   -17.2291 -17.2260 -17.2251 -17.2237 -17.2200 -17.2188 -17.2179 -17.2123
   -17.2100 -17.2061 -17.1959 -17.1918 -17.1819 -17.1784 -17.1720 -17.1710
   -17.1651 -17.1640 -17.1585 -17.1533 -17.1495 -17.1467 -17.1454 -17.1430
   -17.1368 -17.1341 -17.1305 -17.1272 -17.1235 -17.1208 -17.1173 -17.1115
    -0.3480  -0.3247   0.6400   0.7237   0.7462   0.8401   0.8577   0.8710
     0.8929   0.9867   1.0196   1.0339   1.2434   1.2533   1.2584   1.2709
     1.4073   1.4355   1.5165   1.5599   1.5866   1.6120   1.6538   1.6823
     1.7038   1.7098   1.7196   1.7311   1.7415   1.7535   1.7730   1.8238
     8.3089   8.3409   8.4056   8.4830   9.1912   9.2077   9.2861   9.2899
     9.5417   9.6620   9.8230   9.8549   9.9449  10.0247  10.0779  10.1180
    10.1353  10.1603  10.2537  10.2686  10.3046  10.3310  10.3435  10.3877
    10.4259  10.4594  10.5118  10.5173  10.5394  10.5857  10.8132  10.9739
    11.1401  11.1549  11.2280  11.2582  11.2647  11.2798  11.3363  11.3386
    11.3480  11.3613  11.3629  11.3709  11.4338  11.4921  11.4976  11.5013
    11.5214  11.5314  11.5423  11.5809  11.6037  11.6122  11.6303  11.6987
    11.7244  11.8581  11.8765  11.8908  11.9514  12.0103  12.0295  12.0364
    12.0934  12.1668  12.1879  12.2364  12.2443  12.2770  12.2868  12.3006
    12.3240  12.3480  12.3738  12.4156  12.4514  12.4573  12.4883  12.5431
    12.5841  12.6252  12.7152  12.7358  12.7851  12.8874  13.0435  13.1360
    13.3689  13.3723  13.3816  13.3833  14.0376  14.0423  14.0552  14.0566
    14.2758  14.2799  15.7196  15.7233  15.7517  15.7592  15.9195  15.9289
    16.1765  16.2372  16.3654  16.3712  16.4192  16.4715  16.6004  16.6082
    17.3991  17.4027  17.4296  17.4424  17.7259  17.7299  17.7379  17.7564
    17.7681  17.7891  17.8060  17.8141  17.8852  17.9285  17.9358  17.9485
    17.9691  17.9944  18.0044  18.0157  18.0320  18.0690  18.0999  18.1210
    18.1250  18.1403  18.1523  18.1849  18.1930  18.2461  18.2670  18.2702
    18.2874  18.3119  18.3301  18.3613  18.4021  18.4141  18.4852  18.5074
    18.5124  18.5252  18.5341  18.5654  18.5699  18.6033  18.6119  18.6203
    18.6800

          k = 0.0000-0.5000-0.5000 ( 31736 PWs)   bands (ev):

   -41.0703 -41.0583 -41.0582 -41.0549 -41.0280 -41.0272 -41.0238 -41.0220
   -41.0170 -41.0103 -41.0040 -40.9963 -40.9918 -40.9889 -40.9859 -40.9826
   -40.9782 -40.9766 -40.9746 -40.9735 -40.9683 -40.9670 -40.9654 -40.9619
   -40.9589 -40.9581 -40.9544 -40.9518 -17.6486 -17.6460 -17.6401 -17.6353
   -17.6303 -17.6231 -17.6143 -17.6053 -17.5931 -17.5839 -17.5807 -17.5741
   -17.5721 -17.5700 -17.5666 -17.5573 -17.5546 -17.5439 -17.5416 -17.5223
   -17.5126 -17.5037 -17.4919 -17.4818 -17.4572 -17.4447 -17.4388 -17.4275
   -17.4132 -17.4037 -17.3938 -17.3653 -17.3365 -17.3271 -17.3199 -17.3135
   -17.3124 -17.3090 -17.3062 -17.3049 -17.2936 -17.2875 -17.2829 -17.2796
   -17.2736 -17.2705 -17.2677 -17.2640 -17.2621 -17.2535 -17.2491 -17.2477
   -17.2433 -17.2405 -17.2350 -17.2245 -17.2204 -17.2138 -17.2096 -17.2040
   -17.1980 -17.1947 -17.1926 -17.1873 -17.1840 -17.1779 -17.1759 -17.1728
   -17.1698 -17.1664 -17.1627 -17.1619 -17.1599 -17.1585 -17.1547 -17.1537
   -17.1511 -17.1432 -17.1361 -17.1346 -17.1111 -17.1059 -17.0980 -17.0947
    -0.1196  -0.0715   0.1933   0.2390   0.8774   0.9518   1.0564   1.0668
     1.1082   1.1251   1.1765   1.2090   1.2430   1.2587   1.2788   1.3013
     1.3029   1.3097   1.3293   1.3429   1.3917   1.4320   1.5333   1.5943
     1.6019   1.6979   1.7288   1.7407   1.7571   1.7683   1.7965   1.9122
     8.4706   8.5998   8.6974   8.8661   9.3212   9.3887   9.4343   9.4548
     9.6070   9.6722   9.7383   9.7646   9.7938   9.8631   9.9408   9.9752
     9.9841  10.0106  10.0343  10.0795  10.2183  10.2807  10.3237  10.3693
    10.4004  10.4187  10.6318  10.7051  10.7579  10.8334  10.8570  11.0361
    11.0641  11.0765  11.1281  11.1845  11.2232  11.2763  11.3365  11.4026
    11.4976  11.5186  11.5206  11.5346  11.5501  11.5555  11.5716  11.5887
    11.5977  11.6527  11.6884  11.7271  11.7623  11.7763  11.8224  11.8822
    11.9780  11.9997  12.0284  12.0325  12.0600  12.0839  12.0972  12.0999
    12.1133  12.1358  12.1453  12.1523  12.1688  12.1849  12.1986  12.2211
    12.2485  12.2610  12.2851  12.3028  12.3156  12.3552  12.3865  12.4192
    12.4337  12.4454  12.4662  12.5026  12.5187  12.5769  12.6182  12.6786
    13.0926  13.1845  13.2059  13.2578  13.3652  13.4218  13.4293  13.5278
    15.7118  15.7357  15.7789  15.8037  16.0101  16.0434  16.0714  16.1436
    16.2139  16.2423  16.4358  16.4896  16.7061  16.7123  16.7178  16.7376
    16.7931  16.7959  16.8639  16.8819  16.9420  17.1021  17.1227  17.3241
    17.3328  17.3785  17.4280  17.4851  17.5261  17.6280  17.8366  17.8474
    17.8828  17.9128  17.9223  17.9332  17.9563  17.9979  18.0023  18.0189
    18.0749  18.1643  18.2197  18.2392  18.2545  18.2744  18.3593  18.3848
    18.4037  18.4126  18.4523  18.4785  18.4799  18.5010  18.5134  18.5689
    18.5890  18.6061  18.6200  18.6352  18.6847  18.7078  18.7415  18.8077
    18.8171

          k =-0.5000-0.5000-0.5000 ( 31816 PWs)   bands (ev):

   -41.0628 -41.0571 -41.0513 -41.0490 -41.0481 -41.0397 -41.0362 -41.0236
   -41.0099 -41.0051 -41.0006 -40.9936 -40.9891 -40.9851 -40.9830 -40.9795
   -40.9782 -40.9750 -40.9709 -40.9699 -40.9680 -40.9670 -40.9645 -40.9639
   -40.9631 -40.9590 -40.9581 -40.9571 -17.6407 -17.6358 -17.6285 -17.6246
   -17.6218 -17.6178 -17.6167 -17.6139 -17.6096 -17.6084 -17.6047 -17.6000
   -17.5952 -17.5879 -17.5722 -17.5590 -17.5492 -17.5366 -17.5297 -17.5229
   -17.5185 -17.4960 -17.4509 -17.4243 -17.4207 -17.4142 -17.4090 -17.4059
   -17.4019 -17.3959 -17.3864 -17.3780 -17.3389 -17.3334 -17.3239 -17.3186
   -17.3162 -17.3121 -17.3095 -17.3083 -17.3056 -17.3036 -17.3013 -17.3001
   -17.2958 -17.2908 -17.2772 -17.2694 -17.2605 -17.2576 -17.2500 -17.2481
   -17.2421 -17.2396 -17.2372 -17.2302 -17.2290 -17.2239 -17.2213 -17.2162
   -17.2144 -17.2107 -17.2090 -17.2087 -17.2066 -17.2038 -17.2007 -17.1972
   -17.1771 -17.1671 -17.1644 -17.1537 -17.1433 -17.1388 -17.1293 -17.1213
   -17.1194 -17.1151 -17.1092 -17.1058 -17.1032 -17.1024 -17.1008 -17.0969
     0.0972   0.1869   0.3454   0.4680   0.5072   0.5671   0.6059   0.6504
     1.1523   1.2602   1.3012   1.3276   1.3523   1.3671   1.3954   1.4002
     1.4380   1.4643   1.4764   1.4953   1.4992   1.5010   1.5025   1.5075
     1.5117   1.5158   1.5620   1.5864   1.6636   1.6767   1.7339   1.7835
     8.6948   8.7767   8.9614   9.1379   9.2383   9.4367   9.5447   9.5755
     9.6541   9.6565   9.7449   9.8234   9.9063   9.9238  10.0288  10.0470
    10.0557  10.0670  10.0729  10.1001  10.1417  10.1675  10.2160  10.2683
    10.7119  10.7866  10.8513  10.8917  10.9121  11.0150  11.0167  11.0414
    11.0718  11.0756  11.1321  11.1897  11.2521  11.2826  11.3013  11.3138
    11.3349  11.3501  11.3836  11.4008  11.4308  11.4471  11.4637  11.4738
    11.5005  11.5228  11.5320  11.5803  11.5854  11.6150  11.6462  11.6567
    11.9394  11.9635  12.0167  12.0512  12.0602  12.0987  12.1025  12.1397
    12.1490  12.1707  12.1732  12.1833  12.1892  12.1955  12.2101  12.2199
    12.2297  12.2359  12.2594  12.2940  12.3042  12.3415  12.3636  12.3810
    12.3868  12.3967  12.4163  12.4309  12.4397  12.4564  12.4658  12.4977
    12.8707  13.0225  13.1961  13.2137  13.2366  13.2805  13.4007  13.4705
    16.1880  16.2375  16.2957  16.3664  16.3929  16.3950  16.3999  16.4031
    16.4033  16.4201  16.4298  16.4425  16.4530  16.4678  16.4933  16.5500
    16.5776  16.6358  16.7092  16.7149  16.7964  16.8405  16.9383  17.0503
    17.2292  17.2316  17.2434  17.2721  17.2842  17.2923  17.3113  17.3183
    17.3456  17.3555  17.3807  17.4338  17.4787  17.5083  17.5624  17.6717
    17.7252  17.7688  17.8662  17.8870  17.9069  17.9965  18.2649  18.4708
    18.7732  18.7760  18.7805  18.7860  18.7878  18.7924  18.7955  18.7995
    18.8162  18.8251  18.8303  18.8556  18.8592  18.8664  18.8703  18.8877
    18.9109

          k =-0.5000 0.0000 0.0000 ( 31864 PWs)   bands (ev):

   -41.0784 -41.0689 -41.0456 -41.0373 -41.0333 -41.0277 -41.0202 -41.0187
   -41.0153 -41.0107 -41.0047 -41.0009 -40.9942 -40.9904 -40.9890 -40.9866
   -40.9842 -40.9785 -40.9745 -40.9714 -40.9708 -40.9668 -40.9651 -40.9635
   -40.9579 -40.9529 -40.9522 -40.9489 -17.6736 -17.6685 -17.6647 -17.6608
   -17.6583 -17.6437 -17.6395 -17.6197 -17.5690 -17.5680 -17.5631 -17.5600
   -17.5550 -17.5464 -17.5400 -17.5325 -17.5264 -17.5203 -17.5098 -17.4930
   -17.4850 -17.4744 -17.4677 -17.4591 -17.4566 -17.4432 -17.4413 -17.4312
   -17.4167 -17.4139 -17.4053 -17.3891 -17.3866 -17.3791 -17.3776 -17.3643
   -17.3291 -17.3247 -17.3194 -17.3149 -17.3071 -17.3029 -17.2831 -17.2757
   -17.2650 -17.2586 -17.2541 -17.2488 -17.2457 -17.2404 -17.2395 -17.2319
   -17.2286 -17.2270 -17.2238 -17.2228 -17.2198 -17.2180 -17.2159 -17.2096
   -17.2078 -17.2072 -17.1959 -17.1912 -17.1866 -17.1825 -17.1758 -17.1696
   -17.1660 -17.1611 -17.1538 -17.1512 -17.1488 -17.1444 -17.1434 -17.1413
   -17.1351 -17.1328 -17.1311 -17.1287 -17.1267 -17.1202 -17.1150 -17.1102
    -0.3982  -0.2611   0.6155   0.6840   0.7632   0.8336   0.8638   0.8947
     0.9351   0.9624   1.0128   1.0390   1.1835   1.2407   1.2635   1.3320
     1.4590   1.4705   1.4913   1.5370   1.5613   1.5954   1.6479   1.6592
     1.6817   1.7017   1.7187   1.7305   1.7314   1.7437   1.8301   1.8519
     8.3239   8.3562   8.4172   8.4868   9.1459   9.1703   9.2253   9.3130
     9.5500   9.7017   9.8379   9.8877   9.9270   9.9382  10.0240  10.0823
    10.1602  10.2059  10.2593  10.2847  10.3024  10.3423  10.3776  10.3885
    10.4085  10.4697  10.5201  10.5364  10.5552  10.5974  10.8193  10.9917
    11.1226  11.1703  11.2233  11.2456  11.2592  11.2712  11.3260  11.3431
    11.3521  11.3625  11.3681  11.3730  11.3894  11.4561  11.5010  11.5077
    11.5194  11.5397  11.5471  11.5535  11.5940  11.6010  11.6415  11.6992
    11.7684  11.8330  11.8473  11.9491  11.9646  12.0314  12.0786  12.0935
    12.1295  12.1625  12.2040  12.2190  12.2474  12.2775  12.3005  12.3031
    12.3297  12.3334  12.3806  12.3956  12.4363  12.4738  12.5016  12.5462
    12.5614  12.6103  12.6727  12.7237  12.7945  12.9418  12.9984  13.1205
    13.3004  13.3177  13.4081  13.4288  13.9913  14.0290  14.0848  14.1100
    14.1277  14.3787  15.6743  15.6881  15.7774  15.8073  15.8603  16.0060
    16.2122  16.2833  16.3669  16.3935  16.4323  16.4439  16.5403  16.6239
    17.3652  17.3753  17.4357  17.4552  17.6539  17.7285  17.7317  17.7430
    17.7504  17.8086  17.8322  17.8472  17.8617  17.8904  17.9386  17.9723
    17.9862  18.0044  18.0161  18.0187  18.0375  18.0700  18.0921  18.0956
    18.1231  18.1400  18.1493  18.1638  18.1756  18.2502  18.2628  18.2726
    18.2769  18.3001  18.3167  18.3505  18.3743  18.4517  18.4746  18.5086
    18.5176  18.5217  18.5270  18.5534  18.5825  18.5921  18.6107  18.6298
    18.6423

          k = 0.0000-0.5000 0.0000 ( 31864 PWs)   bands (ev):

   -41.0803 -41.0682 -41.0418 -41.0353 -41.0315 -41.0284 -41.0246 -41.0195
   -41.0155 -41.0124 -41.0069 -40.9987 -40.9949 -40.9917 -40.9894 -40.9835
   -40.9820 -40.9783 -40.9747 -40.9715 -40.9702 -40.9692 -40.9666 -40.9611
   -40.9580 -40.9551 -40.9508 -40.9485 -17.6784 -17.6761 -17.6733 -17.6716
   -17.6633 -17.6420 -17.6361 -17.5932 -17.5825 -17.5771 -17.5699 -17.5491
   -17.5404 -17.5390 -17.5312 -17.5242 -17.5210 -17.5056 -17.4921 -17.4902
   -17.4846 -17.4780 -17.4705 -17.4656 -17.4562 -17.4482 -17.4406 -17.4329
   -17.4310 -17.4234 -17.4041 -17.4008 -17.3924 -17.3833 -17.3656 -17.3583
   -17.3380 -17.3325 -17.3220 -17.3123 -17.3098 -17.2997 -17.2808 -17.2788
   -17.2718 -17.2586 -17.2544 -17.2508 -17.2475 -17.2386 -17.2332 -17.2282
   -17.2258 -17.2223 -17.2214 -17.2202 -17.2150 -17.2141 -17.2136 -17.2104
   -17.2055 -17.2046 -17.2019 -17.2015 -17.1987 -17.1866 -17.1779 -17.1755
   -17.1740 -17.1646 -17.1530 -17.1497 -17.1483 -17.1470 -17.1418 -17.1384
   -17.1356 -17.1339 -17.1273 -17.1259 -17.1213 -17.1199 -17.1088 -17.1026
    -0.4505  -0.1636   0.4846   0.6166   0.8121   0.8621   0.8932   0.9492
     0.9636   0.9912   1.0088   1.0392   1.1660   1.2008   1.2727   1.4003
     1.4342   1.4525   1.5041   1.5121   1.5551   1.5794   1.5848   1.6349
     1.6473   1.6894   1.7236   1.7470   1.7856   1.8225   1.8253   1.8323
     8.1510   8.3807   8.4684   8.9502   9.0429   9.1034   9.1493   9.1960
     9.3470   9.6586   9.8141   9.8873   9.9407   9.9863  10.0307  10.1060
    10.2198  10.2237  10.2371  10.2668  10.3033  10.3398  10.3475  10.3953
    10.4261  10.4535  10.5170  10.6215  10.6601  10.7639  10.8325  10.9474
    11.0610  11.1167  11.1903  11.2456  11.2755  11.2986  11.3268  11.3339
    11.3341  11.3507  11.3539  11.3719  11.3864  11.3965  11.4064  11.4712
    11.5182  11.5601  11.5828  11.6049  11.6260  11.6309  11.6497  11.7212
    11.8110  11.8178  11.8348  11.8770  11.9319  12.0331  12.0943  12.1321
    12.1662  12.1945  12.2058  12.2490  12.2663  12.3025  12.3106  12.3289
    12.3297  12.3462  12.3581  12.3791  12.3916  12.4328  12.5086  12.5541
    12.6218  12.6333  12.6694  12.7340  12.7923  12.9270  12.9918  13.0845
    13.2037  13.2445  13.4774  13.4933  13.9536  13.9708  13.9806  14.1350
    14.1527  14.4663  15.6077  15.6143  15.7384  15.9067  15.9412  16.1719
    16.2174  16.2251  16.2913  16.3281  16.4197  16.5165  16.5698  16.6870
    17.3012  17.3072  17.4522  17.4970  17.5482  17.7233  17.7362  17.7413
    17.7565  17.7595  17.7656  17.8028  17.8605  17.8830  17.9290  17.9893
    18.0078  18.0133  18.0194  18.0493  18.0839  18.0861  18.0894  18.0967
    18.1133  18.1262  18.1388  18.1731  18.1763  18.1818  18.1999  18.2393
    18.2753  18.2854  18.3623  18.3865  18.4203  18.4570  18.5107  18.5117
    18.5197  18.5242  18.5261  18.5314  18.5597  18.5723  18.5872  18.6104
    18.6474

          k =-0.5000 0.0000 0.5000 ( 31736 PWs)   bands (ev):

   -41.0663 -41.0659 -41.0555 -41.0474 -41.0430 -41.0299 -41.0225 -41.0177
   -41.0095 -41.0065 -41.0039 -40.9979 -40.9955 -40.9904 -40.9863 -40.9825
   -40.9791 -40.9765 -40.9730 -40.9719 -40.9690 -40.9663 -40.9636 -40.9623
   -40.9617 -40.9583 -40.9545 -40.9510 -17.6584 -17.6474 -17.6376 -17.6271
   -17.6254 -17.6172 -17.6141 -17.6047 -17.5955 -17.5861 -17.5812 -17.5767
   -17.5744 -17.5710 -17.5708 -17.5635 -17.5504 -17.5429 -17.5348 -17.5249
   -17.5203 -17.5117 -17.5017 -17.4747 -17.4549 -17.4409 -17.4339 -17.4267
   -17.4119 -17.3962 -17.3763 -17.3556 -17.3427 -17.3269 -17.3223 -17.3146
   -17.3087 -17.3059 -17.3018 -17.2985 -17.2967 -17.2897 -17.2841 -17.2807
   -17.2763 -17.2719 -17.2649 -17.2625 -17.2603 -17.2583 -17.2551 -17.2479
   -17.2457 -17.2412 -17.2394 -17.2380 -17.2274 -17.2216 -17.2120 -17.2078
   -17.2036 -17.1908 -17.1871 -17.1829 -17.1817 -17.1798 -17.1784 -17.1713
   -17.1678 -17.1664 -17.1646 -17.1629 -17.1603 -17.1581 -17.1566 -17.1528
   -17.1497 -17.1446 -17.1420 -17.1330 -17.1056 -17.1026 -17.0948 -17.0867
    -0.0985  -0.0239   0.1075   0.1945   0.9640   1.0183   1.0683   1.0893
     1.1099   1.1211   1.1464   1.1703   1.2255   1.2392   1.2507   1.2983
     1.3100   1.3205   1.3479   1.3656   1.3972   1.4521   1.5387   1.5789
     1.6055   1.6284   1.6755   1.6996   1.7444   1.8009   1.8462   1.9408
     8.4444   8.5971   8.6873   8.9193   9.0992   9.4190   9.4483   9.4987
     9.6627   9.6987   9.7811   9.8160   9.8763   9.9025   9.9249   9.9514
    10.0288  10.0368  10.0711  10.1034  10.2359  10.2465  10.2725  10.3466
    10.3849  10.4227  10.6374  10.7059  10.7340  10.8146  10.8663  10.9309
    10.9541  11.0405  11.1332  11.1628  11.2202  11.3264  11.4364  11.4541
    11.4662  11.4733  11.5294  11.5385  11.5531  11.5656  11.5803  11.5886
    11.6087  11.6306  11.6622  11.6759  11.7329  11.7783  11.8683  11.8803
    11.9018  11.9499  11.9786  11.9984  12.0274  12.0843  12.1080  12.1099
    12.1373  12.1525  12.1542  12.1749  12.1823  12.2011  12.2137  12.2180
    12.2478  12.2591  12.2792  12.3085  12.3096  12.3242  12.3871  12.4444
    12.4627  12.4871  12.5064  12.5124  12.5567  12.5702  12.6056  12.6626
    13.0301  13.1664  13.2551  13.2839  13.3702  13.4019  13.4775  13.5632
    15.6850  15.7455  15.8095  15.8672  15.9576  15.9843  16.0633  16.1600
    16.2755  16.3331  16.3702  16.4302  16.6355  16.7279  16.7488  16.7877
    16.7898  16.7938  16.8457  16.9165  16.9920  17.0400  17.1734  17.2509
    17.2736  17.3138  17.3798  17.4517  17.5103  17.6938  17.8340  17.8426
    17.8569  17.8697  17.9156  17.9515  17.9802  18.0030  18.0732  18.0941
    18.1484  18.1648  18.1943  18.2159  18.2476  18.2876  18.3376  18.3592
    18.3908  18.4267  18.4365  18.4492  18.5035  18.5475  18.5716  18.5884
    18.6009  18.6201  18.6354  18.6463  18.6672  18.6860  18.7492  18.7994
    18.8034

          k =-0.5000 0.5000 0.0000 ( 31736 PWs)   bands (ev):

   -41.0702 -41.0602 -41.0581 -41.0517 -41.0359 -41.0260 -41.0232 -41.0180
   -41.0123 -41.0078 -41.0062 -41.0006 -40.9951 -40.9876 -40.9846 -40.9811
   -40.9782 -40.9770 -40.9726 -40.9721 -40.9700 -40.9683 -40.9666 -40.9631
   -40.9613 -40.9555 -40.9524 -40.9522 -17.6457 -17.6403 -17.6356 -17.6339
   -17.6324 -17.6300 -17.6244 -17.6024 -17.5897 -17.5835 -17.5811 -17.5799
   -17.5712 -17.5678 -17.5650 -17.5605 -17.5524 -17.5442 -17.5337 -17.5273
   -17.5118 -17.4976 -17.4878 -17.4762 -17.4656 -17.4524 -17.4457 -17.4279
   -17.4202 -17.4117 -17.3877 -17.3774 -17.3254 -17.3204 -17.3170 -17.3130
   -17.3105 -17.3077 -17.3037 -17.3015 -17.2944 -17.2885 -17.2842 -17.2776
   -17.2761 -17.2713 -17.2666 -17.2628 -17.2559 -17.2535 -17.2507 -17.2443
   -17.2425 -17.2423 -17.2361 -17.2315 -17.2180 -17.2114 -17.2057 -17.2043
   -17.1973 -17.1955 -17.1899 -17.1881 -17.1825 -17.1816 -17.1792 -17.1743
   -17.1717 -17.1694 -17.1629 -17.1598 -17.1572 -17.1542 -17.1520 -17.1504
   -17.1474 -17.1461 -17.1443 -17.1384 -17.1154 -17.1055 -17.1045 -17.0879
    -0.1674  -0.0041   0.1713   0.2604   0.8876   0.9081   1.0479   1.0532
     1.1192   1.1508   1.1731   1.2152   1.2229   1.2431   1.2815   1.2918
     1.2999   1.3128   1.3333   1.3594   1.3898   1.4136   1.5163   1.6039
     1.6554   1.6838   1.7371   1.7445   1.7622   1.7680   1.8437   1.8562
     8.5561   8.6030   8.7319   8.7740   9.3484   9.3681   9.4345   9.4706
     9.5112   9.6187   9.7169   9.7522   9.7845   9.8986   9.9169   9.9523
     9.9905  10.0071  10.0372  10.0995  10.1649  10.2688  10.3109  10.3895
    10.4225  10.4727  10.6556  10.7187  10.7372  10.8767  10.9617  11.0090
    11.0523  11.1107  11.1413  11.1865  11.1924  11.2547  11.2738  11.4065
    11.5076  11.5185  11.5247  11.5362  11.5437  11.5576  11.5804  11.5963
    11.6024  11.6956  11.7029  11.7283  11.7779  11.8134  11.8538  11.9007
    11.9702  11.9769  12.0432  12.0601  12.0796  12.0871  12.0953  12.1007
    12.1124  12.1216  12.1420  12.1628  12.1817  12.1995  12.2043  12.2241
    12.2435  12.2584  12.2879  12.3018  12.3231  12.3407  12.3483  12.3661
    12.4346  12.4533  12.4663  12.4804  12.4928  12.5353  12.6251  12.6784
    13.1301  13.1646  13.2286  13.2831  13.3251  13.3762  13.4051  13.5169
    15.7081  15.7376  15.8044  15.8175  15.9251  15.9554  16.1343  16.1868
    16.1967  16.2655  16.3977  16.5279  16.7027  16.7270  16.7380  16.7436
    16.7699  16.8073  16.8551  16.9034  16.9423  17.1035  17.2642  17.3068
    17.3523  17.3775  17.4241  17.4294  17.5497  17.6911  17.8155  17.8485
    17.8631  17.9025  17.9161  17.9225  17.9458  17.9577  17.9750  17.9915
    18.1190  18.1624  18.2141  18.2238  18.2607  18.2739  18.2820  18.3593
    18.4037  18.4130  18.4443  18.4746  18.4838  18.5047  18.5121  18.5458
    18.5742  18.5957  18.6369  18.6498  18.6635  18.6869  18.7299  18.7396
    18.8167

     the Fermi energy is    16.6300 ev

!    total energy              =   -6212.08356394 Ry
     total all-electron energy =    -53268.057707 Ry
     estimated scf accuracy    <       0.00000038 Ry
     smearing contrib. (-TS)   =      -0.00314382 Ry
     internal energy E=F+TS    =   -6212.08042012 Ry

     The total energy is F=E-TS. E is the sum of the following terms:
     one-electron contribution =    -871.87011703 Ry
     hartree contribution      =     757.76248873 Ry
     xc contribution           =    -718.89014575 Ry
     ewald contribution        =   -3155.99745537 Ry
     one-center paw contrib.   =   -2223.08519069 Ry

     convergence has been achieved in  14 iterations

     Forces acting on atoms (cartesian axes, Ry/au):

     atom    1 type  3   force =     0.00184204   -0.00329153    0.01607197
     atom    2 type  2   force =     0.05440449    0.00128235   -0.00020914
     atom    3 type  3   force =    -0.01366045   -0.00348075   -0.01747589
     atom    4 type  2   force =     0.05196234    0.00011903    0.05288770
     atom    5 type  3   force =    -0.02969693   -0.01990959   -0.00075820
     atom    6 type  2   force =    -0.00090395    0.00390004   -0.00394735
     atom    7 type  3   force =    -0.01607606    0.01453641    0.00174980
     atom    8 type  2   force =     0.00310553   -0.00360593   -0.05157663
     atom    9 type  3   force =    -0.01429519   -0.02183755   -0.01568184
     atom   10 type  2   force =     0.00259100    0.05171367    0.00025022
     atom   11 type  1   force =    -0.00034240    0.00011455   -0.00012963
     atom   12 type  2   force =    -0.05379698    0.00010973   -0.05316560
     atom   13 type  3   force =     0.00462717   -0.02165350    0.00023976
     atom   14 type  2   force =     0.00102195    0.05214028    0.00403568
     atom   15 type  1   force =     0.00025737   -0.00012270   -0.00024811
     atom   16 type  2   force =     0.05436835    0.00006973    0.05209739
     atom   17 type  3   force =     0.00431881    0.00343705    0.01573742
     atom   18 type  2   force =     0.00142397   -0.00124195   -0.00063809
     atom   19 type  3   force =     0.00245154    0.00264240   -0.00038323
     atom   20 type  2   force =     0.00237149   -0.00098527    0.00446034
     atom   21 type  3   force =    -0.00904807    0.02001041   -0.01796937
     atom   22 type  2   force =    -0.00062475   -0.00325992    0.00029194
     atom   23 type  3   force =    -0.00892794   -0.01385539   -0.00047220
     atom   24 type  2   force =    -0.00024329    0.00340941   -0.00365834
     atom   25 type  3   force =    -0.01342835    0.02165904   -0.01523302
     atom   26 type  2   force =    -0.00271747   -0.05113316    0.00058032
     atom   27 type  3   force =     0.00234666    0.00221668    0.00079328
     atom   28 type  2   force =    -0.00606454   -0.00080608   -0.00453163
     atom   29 type  3   force =     0.01979843    0.02118717    0.01810146
     atom   30 type  2   force =     0.00060360   -0.05190374   -0.00102967
     atom   31 type  3   force =     0.00518079    0.00439307    0.00023335
     atom   32 type  2   force =     0.00305427    0.00012319    0.00384823
     atom   33 type  1   force =     0.00038769    0.00074023    0.00089168
     atom   34 type  2   force =    -0.05343704   -0.00376400    0.00073389
     atom   35 type  1   force =    -0.00014754   -0.00063861   -0.00018454
     atom   36 type  2   force =    -0.05018409    0.00011208    0.00300676
     atom   37 type  3   force =     0.02930730   -0.00271144    0.01500917
     atom   38 type  2   force =    -0.00006354    0.05141618   -0.05273364
     atom   39 type  3   force =     0.01553113    0.01164107   -0.00133782
     atom   40 type  2   force =    -0.00430516   -0.05570775    0.04922510
     atom   41 type  3   force =     0.01499562   -0.02402565    0.01409337
     atom   42 type  2   force =    -0.00315345   -0.00015783   -0.00066685
     atom   43 type  3   force =     0.01804451    0.01567575    0.00089787
     atom   44 type  2   force =     0.05226158    0.00058381   -0.00296857
     atom   45 type  3   force =    -0.00512524   -0.00136828   -0.01566850
     atom   46 type  2   force =    -0.00056914    0.00514604    0.05397460
     atom   47 type  3   force =    -0.00474862   -0.00409181    0.00212554
     atom   48 type  2   force =    -0.05482810   -0.00347975   -0.05028599
     atom   49 type  3   force =    -0.00380849    0.00698949   -0.01664941
     atom   50 type  2   force =    -0.00160697    0.00387187   -0.00037238
     atom   51 type  3   force =    -0.00283344   -0.01297616    0.01487867
     atom   52 type  2   force =    -0.00168084   -0.00022337    0.00062638
     atom   53 type  3   force =     0.00940245    0.00372574   -0.00063740
     atom   54 type  2   force =     0.00038788   -0.05132895   -0.00155399
     atom   55 type  3   force =     0.00921959   -0.01166219   -0.00014496
     atom   56 type  2   force =     0.00016812    0.05445450    0.00306313
     atom   57 type  3   force =     0.01400942    0.02469894    0.01703101
     atom   58 type  2   force =     0.00241583    0.00114460    0.00025413
     atom   59 type  3   force =    -0.00280057   -0.01581182   -0.01609524
     atom   60 type  2   force =     0.00591696   -0.00120235   -0.00047286
     atom   61 type  3   force =    -0.02093169    0.00026342    0.00098020
     atom   62 type  2   force =     0.00012774   -0.00519582    0.00386071
     atom   63 type  3   force =    -0.00491404    0.00408891   -0.00035915
     atom   64 type  2   force =    -0.00294129    0.00381602   -0.00479182

     Total force =     0.284178     Total SCF correction =     0.001326


     Computing stress (Cartesian axis) and pressure

          total   stress  (Ry/bohr**3)                   (kbar)     P=       38.90
   0.00027377  -0.00000625   0.00001148           40.27       -0.92        1.69
  -0.00000625   0.00026018  -0.00000826           -0.92       38.27       -1.22
   0.00001148  -0.00000826   0.00025944            1.69       -1.22       38.16


     BFGS Geometry Optimization
     Energy error            =      0.0E+00 Ry
     Gradient error          =      5.6E-02 Ry/Bohr

     number of scf cycles    =   1
     number of bfgs steps    =   0

     energy             new  =   -6212.0835639361 Ry

     new trust radius        =       0.0756353676 bohr
     new conv_thr            =       0.0000010000 Ry


ATOMIC_POSITIONS (angstrom)
Ti            0.0009747641       -0.0017418032        0.0085049221
N             2.1381646165        0.0006785885       -0.0001106730
Ti           -0.0072287991        2.1075330648        2.1001271560
N             2.1368722869        2.1094379869        2.1373619674
Ti            2.0936600636       -0.0105357003        2.1089737780
N            -0.0004783513        0.0020638135        2.1072861497
Ti            2.1008679134        2.1170673371        0.0009259530
N             0.0016433748        2.1074668251       -0.0272931774
Ti           -0.0075646875       -0.0115559321        4.2104515299
N             2.1107460988        0.0273656957        4.2188824100
Al           -0.0001811901        2.1094356185        6.3280564020
N             2.0809068621        2.1094330647        6.2999909747
Ti            2.1118235934       -0.0114585409        6.3282518753
N             0.0005407904        0.0275914484        6.3302605874
Al            2.1095111952        2.1093100691        4.2186187055
N             0.0287704941        2.1094118969        4.2463187509
Ti            0.0022854158        4.2205688065        0.0083278826
N             2.1101285339        4.2180927879       -0.0003376647
Ti            0.0012973010        6.3295232987        2.1091722025
N             2.1106299376        6.3276036193        2.1117353111
Ti            2.1045869694        4.2293390520        2.0998660185
N            -0.0003306017        4.2170249231        2.1095294889
Ti            2.1046505363        6.3207930418       -0.0002498791
N            -0.0001287443        6.3299291805       -0.0019359093
Ti           -0.0071059769        4.2302114714        4.2106890325
N             2.1079369761        4.1916914957        4.2190570937
Ti            0.0012417969        6.3292980150        6.3285447861
N             2.1061657844        6.3276984398        6.3257269643
Ti            2.1198518801        4.2299617663        6.3377038806
N             0.0003194123        4.1912837259        6.3275801229
Ti            2.1121165558        6.3304497104        4.2188734833
N             0.0016162520        6.3281901902        4.2207863968
Al            4.2189551542        0.0003917127        0.0004718564
N             6.2998473354       -0.0019918223        0.0003883562
Al            4.2186719233        2.1090370619        2.1092773479
N             6.3015687247        2.1094343113        2.1109661102
Ti            6.3436337563       -0.0014348326        2.1173175116
N             4.2187163740        0.0272082697        2.0814695617
Ti            6.3363437226        2.1155351866       -0.0007079450
N             4.2164718097        2.0798957283        0.0260487992
Ti            4.2266853382       -0.0127138248        4.2262078881
N             6.3264562663       -0.0000835191        4.2183971183
Ti            4.2282987440        2.1176702477        6.3286001323
N             6.3557806360        2.1096839406        6.3265540978
Ti            6.3254128398       -0.0007240634        6.3198335868
N             4.2184488242        0.0027231682        6.3566871294
Ti            6.3256121367        2.1072097074        4.2198747867
N             4.1897362172        2.1075335942        4.1921398003
Ti            4.2167346319        4.2224486811       -0.0088104879
N             6.3272746278        4.2207989063       -0.0001970566
Ti            4.2172506056        6.3212583116        2.1172484524
N             6.3272355367        6.3280067987        2.1097064668
Ti            6.3331005643        4.2207215754        2.1090377007
N             4.2189552549        4.1915878906        2.1085526626
Ti            6.3330037989        6.3219536332       -0.0000767120
N             4.2188389673        6.3569410804        0.0016209409
Ti            4.2261634639        4.2318201149        4.2277624227
N             6.3294034034        4.2193556942        4.2188844816
Ti            4.2172680041        6.3197577452        6.3196077680
N             6.3312561221        6.3274887446        6.3278747742
Ti            6.3170484259        4.2188893983        6.3286436972
N             4.2188175956        4.2160004924        6.3301680007
Ti            6.3255246045        6.3302887559        4.2185599481
N             4.2171935370        6.3301443532        4.2162142805



     Writing config-only to output data dir ../output/relax_sqs_all_x/tmp_x0125/TiAlN_x0125_relax.save/
     NEW-OLD atomic charge density approx. for the potential

     Check: negative core charge=   -0.000031

     total cpu time spent up to now is      178.7 secs

     Self-consistent Calculation

     iteration #  1     ecut=    60.00 Ry     beta= 0.20
     Davidson diagonalization with overlap
     c_bands:  3 eigenvalues not converged
     ethr =  1.00E-06,  avg # of iterations = 11.8

     total cpu time spent up to now is      204.7 secs

     total energy              =   -6212.15092549 Ry
     estimated scf accuracy    <       0.02561186 Ry

     iteration #  2     ecut=    60.00 Ry     beta= 0.20
     Davidson diagonalization with overlap
     ethr =  5.04E-06,  avg # of iterations =  1.1

     total cpu time spent up to now is      211.9 secs

     total energy              =   -6212.14469696 Ry
     estimated scf accuracy    <       0.01709133 Ry

     iteration #  3     ecut=    60.00 Ry     beta= 0.20
     Davidson diagonalization with overlap
     ethr =  3.36E-06,  avg # of iterations =  2.0

     total cpu time spent up to now is      220.2 secs

     total energy              =   -6212.14601243 Ry
     estimated scf accuracy    <       0.00382541 Ry

     iteration #  4     ecut=    60.00 Ry     beta= 0.20
     Davidson diagonalization with overlap
     ethr =  7.53E-07,  avg # of iterations =  2.0

     total cpu time spent up to now is      228.3 secs

     total energy              =   -6212.14635125 Ry
     estimated scf accuracy    <       0.00063898 Ry

     iteration #  5     ecut=    60.00 Ry     beta= 0.20
     Davidson diagonalization with overlap
     ethr =  1.26E-07,  avg # of iterations =  8.2

     total cpu time spent up to now is      240.5 secs

     total energy              =   -6212.14637462 Ry
     estimated scf accuracy    <       0.00021555 Ry

     iteration #  6     ecut=    60.00 Ry     beta= 0.20
     Davidson diagonalization with overlap
     ethr =  4.24E-08,  avg # of iterations =  3.2

     total cpu time spent up to now is      249.9 secs

     total energy              =   -6212.14639430 Ry
     estimated scf accuracy    <       0.00004801 Ry

     iteration #  7     ecut=    60.00 Ry     beta= 0.20
     Davidson diagonalization with overlap
     ethr =  9.45E-09,  avg # of iterations =  5.0

     total cpu time spent up to now is      259.5 secs

     total energy              =   -6212.14640100 Ry
     estimated scf accuracy    <       0.00001607 Ry

     iteration #  8     ecut=    60.00 Ry     beta= 0.20
     Davidson diagonalization with overlap
     ethr =  3.16E-09,  avg # of iterations =  2.9

     total cpu time spent up to now is      267.7 secs

     total energy              =   -6212.14640193 Ry
     estimated scf accuracy    <       0.00000383 Ry

     iteration #  9     ecut=    60.00 Ry     beta= 0.20
     Davidson diagonalization with overlap
     ethr =  7.55E-10,  avg # of iterations =  5.6

     total cpu time spent up to now is      277.0 secs

     total energy              =   -6212.14640144 Ry
     estimated scf accuracy    <       0.00000251 Ry

     iteration # 10     ecut=    60.00 Ry     beta= 0.20
     Davidson diagonalization with overlap
     ethr =  4.95E-10,  avg # of iterations =  4.9

     total cpu time spent up to now is      286.5 secs

     End of self-consistent calculation

          k = 0.0000 0.0000 0.0000 ( 31799 PWs)   bands (ev):

   -41.1271 -41.0900 -41.0781 -41.0748 -41.0701 -41.0635 -41.0588 -41.0534
   -41.0475 -41.0436 -41.0409 -41.0366 -41.0333 -41.0320 -41.0269 -41.0210
   -41.0188 -41.0154 -41.0136 -41.0102 -41.0058 -41.0042 -40.9974 -40.9911
   -40.9879 -40.9866 -40.9782 -40.9768 -17.7689 -17.7587 -17.7542 -17.7380
   -17.6482 -17.6402 -17.6272 -17.5980 -17.5945 -17.5917 -17.5855 -17.5830
   -17.5798 -17.5712 -17.5643 -17.5590 -17.5511 -17.5385 -17.5276 -17.5004
   -17.4980 -17.4926 -17.4837 -17.4824 -17.4748 -17.4612 -17.4556 -17.4543
   -17.4298 -17.4196 -17.4174 -17.4121 -17.4097 -17.3900 -17.3860 -17.3825
   -17.3790 -17.3768 -17.3751 -17.3697 -17.3667 -17.3628 -17.3580 -17.3528
   -17.3495 -17.3421 -17.3348 -17.3324 -17.3320 -17.3181 -17.3039 -17.2943
   -17.2791 -17.2754 -17.2719 -17.2556 -17.2471 -17.2416 -17.2273 -17.2240
   -17.2173 -17.2149 -17.2116 -17.2094 -17.2055 -17.2007 -17.1978 -17.1970
   -17.1900 -17.1874 -17.1852 -17.1775 -17.1753 -17.1744 -17.1717 -17.1685
   -17.1620 -17.1606 -17.1571 -17.1565 -17.1543 -17.1310 -17.1268 -17.1188
    -0.7254   0.2729   0.3670   0.4929   0.5341   0.5935   0.6271   0.9575
     1.0105   1.0440   1.2673   1.3008   1.3276   1.3353   1.3464   1.3518
     1.3696   1.4201   1.4288   1.4424   1.4605   1.4784   1.5484   1.5992
     1.6215   1.6538   1.7075   1.7197   1.9025   1.9263   1.9535   1.9816
     7.8639   8.1236   8.1830   8.6938   8.8092   9.2852   9.3254   9.4867
     9.7704   9.7858   9.7934   9.7970   9.8211   9.8496   9.8639   9.8698
    10.0605  10.1484  10.1962  10.3563  10.4031  10.4526  10.5216  10.5806
    10.6165  10.6670  10.6891  10.7674  10.7873  10.8655  11.0101  11.0967
    11.1164  11.1308  11.1622  11.1711  11.1863  11.2024  11.2240  11.2279
    11.2363  11.2485  11.2659  11.2865  11.2998  11.3111  11.3314  11.3467
    11.3642  11.3871  11.4051  11.4317  11.4515  11.4592  11.4715  11.4903
    11.5058  11.5389  11.5831  11.6572  11.6719  11.7042  11.7405  11.7816
    11.8022  11.8910  11.9249  11.9809  12.0329  12.1860  12.2067  12.2490
    12.2781  12.3323  12.3435  13.1014  13.1948  13.2036  13.2819  13.3422
    13.4066  13.4085  13.4497  13.4561  13.4719  13.4740  13.5091  13.5513
    13.5777  13.5837  13.5863  13.5916  13.6199  13.8246  13.8901  13.9250
    14.7033  14.7102  14.7131  14.8337  14.8390  14.9735  14.9859  15.1246
    15.1869  16.2996  16.3254  16.4240  17.4779  17.5809  17.5876  17.6076
    17.6188  17.6244  17.6325  17.6424  17.6515  17.6554  17.6695  17.6736
    17.6781  17.6834  17.6988  17.7099  17.7616  17.8545  17.8854  17.9047
    17.9159  17.9265  17.9291  17.9761  17.9908  18.0161  18.0400  18.1005
    18.1243  18.1993  18.2392  18.3001  18.3753  18.3784  18.3908  18.3977
    18.4017  18.4076  18.4298  18.4366  18.4448  18.4480  18.4567  18.4598
    18.4716  18.4738  18.4826  18.4988  18.5058  18.5108  18.5235  18.5332
    18.5455

          k = 0.0000 0.0000-0.5000 ( 31864 PWs)   bands (ev):

   -41.1130 -41.1080 -41.0852 -41.0742 -41.0710 -41.0581 -41.0568 -41.0511
   -41.0495 -41.0443 -41.0424 -41.0402 -41.0367 -41.0257 -41.0198 -41.0195
   -41.0166 -41.0146 -41.0119 -41.0090 -41.0068 -41.0045 -40.9976 -40.9916
   -40.9887 -40.9866 -40.9820 -40.9786 -17.7000 -17.6975 -17.6918 -17.6881
   -17.6854 -17.6822 -17.6735 -17.6660 -17.6016 -17.5989 -17.5951 -17.5911
   -17.5880 -17.5833 -17.5788 -17.5701 -17.5681 -17.5580 -17.5444 -17.5426
   -17.5110 -17.5029 -17.4937 -17.4933 -17.4895 -17.4761 -17.4711 -17.4626
   -17.4556 -17.4427 -17.4360 -17.4284 -17.4182 -17.4165 -17.3970 -17.3802
   -17.3610 -17.3596 -17.3505 -17.3494 -17.3415 -17.3223 -17.3165 -17.3116
   -17.3066 -17.2932 -17.2804 -17.2771 -17.2743 -17.2730 -17.2649 -17.2617
   -17.2612 -17.2590 -17.2573 -17.2553 -17.2521 -17.2503 -17.2483 -17.2455
   -17.2448 -17.2406 -17.2279 -17.2229 -17.2142 -17.2076 -17.2024 -17.2013
   -17.1977 -17.1946 -17.1898 -17.1843 -17.1833 -17.1787 -17.1764 -17.1744
   -17.1701 -17.1676 -17.1646 -17.1611 -17.1554 -17.1508 -17.1471 -17.1426
    -0.3551  -0.3411   0.6147   0.6964   0.7285   0.8430   0.8547   0.8599
     0.8835   0.9582   0.9733   0.9966   1.2163   1.2271   1.2427   1.2844
     1.4205   1.4508   1.5273   1.5756   1.5972   1.6202   1.6355   1.6632
     1.6733   1.6794   1.6953   1.7019   1.7085   1.7223   1.8134   1.8915
     8.3458   8.3982   8.4931   8.5954   9.1917   9.2090   9.2794   9.2824
     9.5733   9.6500   9.8052   9.8156   9.9201  10.0180  10.0800  10.1149
    10.1296  10.1696  10.2464  10.2620  10.2933  10.3065  10.3258  10.3615
    10.4166  10.4366  10.4815  10.4987  10.5141  10.5445  10.8154  10.9676
    11.1315  11.1488  11.2193  11.2367  11.2616  11.2823  11.3042  11.3137
    11.3351  11.3454  11.3560  11.3678  11.4466  11.4516  11.4625  11.4895
    11.4919  11.5160  11.5322  11.5747  11.5959  11.6053  11.6399  11.6979
    11.7267  11.8662  11.8870  11.9086  11.9928  12.0190  12.0472  12.0696
    12.1495  12.1684  12.2102  12.2320  12.2704  12.2759  12.2911  12.3262
    12.3614  12.3718  12.3920  12.4377  12.4602  12.5136  12.5284  12.5523
    12.5987  12.6266  12.6896  12.7224  12.8216  12.9450  13.0926  13.1974
    13.3637  13.3677  13.3734  13.3758  14.0327  14.0383  14.0493  14.0573
    14.2014  14.2082  15.6454  15.6633  15.6877  15.7092  15.8646  15.8742
    16.1392  16.1756  16.3117  16.3178  16.3835  16.4291  16.5528  16.5675
    17.3598  17.3621  17.3885  17.4011  17.6694  17.6830  17.6939  17.7103
    17.7152  17.7360  17.7500  17.7583  17.8209  17.8819  17.8989  17.9323
    17.9384  17.9572  17.9734  17.9830  17.9960  18.0611  18.0781  18.0964
    18.1144  18.1214  18.1264  18.1590  18.1646  18.2150  18.2325  18.2470
    18.2643  18.2844  18.2946  18.3291  18.3658  18.3803  18.4428  18.4615
    18.4648  18.4748  18.4889  18.5178  18.5353  18.5666  18.5713  18.5800
    18.6250

          k = 0.0000-0.5000-0.5000 ( 31736 PWs)   bands (ev):

   -41.1067 -41.0978 -41.0957 -41.0884 -41.0700 -41.0607 -41.0594 -41.0552
   -41.0477 -41.0455 -41.0410 -41.0326 -41.0292 -41.0266 -41.0206 -41.0194
   -41.0146 -41.0124 -41.0101 -41.0070 -41.0056 -41.0008 -40.9985 -40.9977
   -40.9896 -40.9854 -40.9839 -40.9814 -17.6808 -17.6733 -17.6725 -17.6691
   -17.6650 -17.6601 -17.6496 -17.6392 -17.6240 -17.6172 -17.6113 -17.6069
   -17.6044 -17.6027 -17.5983 -17.5921 -17.5861 -17.5815 -17.5776 -17.5572
   -17.5441 -17.5384 -17.5243 -17.5039 -17.4915 -17.4768 -17.4690 -17.4620
   -17.4464 -17.4354 -17.4290 -17.3980 -17.3675 -17.3615 -17.3573 -17.3486
   -17.3450 -17.3418 -17.3401 -17.3349 -17.3329 -17.3175 -17.3142 -17.3104
   -17.3026 -17.3011 -17.2983 -17.2954 -17.2919 -17.2872 -17.2835 -17.2783
   -17.2753 -17.2708 -17.2610 -17.2572 -17.2524 -17.2445 -17.2431 -17.2359
   -17.2301 -17.2259 -17.2231 -17.2202 -17.2117 -17.2107 -17.2089 -17.2055
   -17.2040 -17.1973 -17.1955 -17.1937 -17.1920 -17.1900 -17.1878 -17.1855
   -17.1815 -17.1792 -17.1673 -17.1647 -17.1438 -17.1367 -17.1321 -17.1263
    -0.1252  -0.0872   0.1713   0.2218   0.8736   0.9508   1.0267   1.0885
     1.1279   1.1337   1.1610   1.1743   1.2083   1.2214   1.2295   1.2492
     1.2599   1.2693   1.3103   1.3358   1.3486   1.4521   1.5849   1.5890
     1.6504   1.6748   1.6949   1.6985   1.7156   1.8065   1.8409   1.9649
     8.5028   8.6551   8.8012   8.9854   9.3352   9.3821   9.4289   9.4700
     9.6195   9.6554   9.7063   9.7498   9.7865   9.8747   9.9369   9.9646
     9.9801   9.9989  10.0266  10.0739  10.2184  10.2739  10.3067  10.3489
    10.3707  10.3955  10.6435  10.7108  10.7357  10.7983  10.8402  11.0460
    11.0543  11.0633  11.1243  11.1709  11.2224  11.2644  11.3276  11.3812
    11.4634  11.4714  11.4747  11.4965  11.5308  11.5371  11.5422  11.5589
    11.6036  11.6763  11.6838  11.7371  11.7679  11.7869  11.8142  11.9034
    11.9610  11.9850  12.0196  12.0303  12.0451  12.0683  12.0706  12.0938
    12.1279  12.1444  12.1459  12.1583  12.1660  12.1915  12.2061  12.2278
    12.2368  12.2568  12.2923  12.3317  12.3454  12.3588  12.3844  12.4108
    12.4302  12.4684  12.4959  12.5501  12.5782  12.6191  12.6731  12.7526
    13.1499  13.2448  13.2535  13.2857  13.3401  13.3503  13.4292  13.5421
    15.6119  15.6795  15.6966  15.7631  15.9688  16.0036  16.0452  16.1200
    16.1560  16.1584  16.3884  16.4447  16.6417  16.6490  16.6723  16.6830
    16.7413  16.7738  16.8162  16.8378  16.8766  17.1060  17.1141  17.2547
    17.2927  17.3559  17.3925  17.4665  17.4905  17.6071  17.8270  17.8349
    17.8532  17.8737  17.8785  17.9033  17.9102  17.9705  17.9749  17.9774
    18.0364  18.1271  18.1884  18.1947  18.2195  18.2535  18.3351  18.3504
    18.3607  18.3848  18.4044  18.4388  18.4410  18.4494  18.4716  18.5325
    18.5663  18.5769  18.5953  18.6099  18.6690  18.6944  18.7367  18.7698
    18.7948

          k =-0.5000-0.5000-0.5000 ( 31816 PWs)   bands (ev):

   -41.1021 -41.0921 -41.0877 -41.0855 -41.0839 -41.0773 -41.0724 -41.0565
   -41.0450 -41.0381 -41.0338 -41.0314 -41.0252 -41.0224 -41.0207 -41.0184
   -41.0130 -41.0104 -41.0089 -41.0058 -41.0026 -41.0024 -41.0002 -40.9982
   -40.9939 -40.9867 -40.9847 -40.9843 -17.6619 -17.6592 -17.6585 -17.6564
   -17.6555 -17.6522 -17.6500 -17.6473 -17.6460 -17.6451 -17.6438 -17.6369
   -17.6294 -17.6255 -17.6087 -17.5923 -17.5850 -17.5736 -17.5616 -17.5527
   -17.5487 -17.5294 -17.4813 -17.4596 -17.4523 -17.4461 -17.4433 -17.4381
   -17.4367 -17.4251 -17.4126 -17.4038 -17.3733 -17.3688 -17.3540 -17.3524
   -17.3515 -17.3504 -17.3448 -17.3431 -17.3427 -17.3399 -17.3368 -17.3354
   -17.3325 -17.3308 -17.2998 -17.2932 -17.2874 -17.2805 -17.2785 -17.2783
   -17.2718 -17.2682 -17.2661 -17.2612 -17.2602 -17.2526 -17.2503 -17.2477
   -17.2469 -17.2463 -17.2421 -17.2410 -17.2395 -17.2372 -17.2348 -17.2322
   -17.2077 -17.1989 -17.1944 -17.1835 -17.1755 -17.1692 -17.1597 -17.1554
   -17.1492 -17.1457 -17.1449 -17.1401 -17.1386 -17.1373 -17.1342 -17.1273
     0.0729   0.1711   0.3289   0.4797   0.5242   0.5611   0.5888   0.6048
     1.1908   1.2655   1.3098   1.3398   1.3450   1.3554   1.3690   1.3731
     1.3846   1.3971   1.4074   1.4186   1.4296   1.4400   1.4432   1.4604
     1.4659   1.4899   1.5952   1.6333   1.7141   1.7421   1.8178   1.8748
     8.7204   8.8299   9.0550   9.2485   9.2724   9.4625   9.5591   9.5923
     9.6568   9.6665   9.7437   9.8359   9.9087   9.9344   9.9983  10.0138
    10.0230  10.0363  10.0526  10.0857  10.1244  10.1596  10.2124  10.2725
    10.7003  10.7729  10.8520  10.8896  10.9532  10.9847  11.0062  11.0126
    11.0304  11.0583  11.1264  11.1700  11.2317  11.2595  11.2807  11.3001
    11.3361  11.3497  11.3878  11.4115  11.4352  11.4472  11.4561  11.4742
    11.4950  11.5028  11.5223  11.5369  11.5488  11.5833  11.6092  11.6403
    11.9623  11.9859  12.0073  12.0315  12.0492  12.0643  12.0909  12.1055
    12.1143  12.1365  12.1443  12.1593  12.1748  12.1890  12.2085  12.2109
    12.2422  12.2533  12.2877  12.2926  12.3153  12.3333  12.3563  12.3598
    12.4067  12.4360  12.4472  12.4932  12.4944  12.5301  12.5367  12.5547
    12.9256  13.0659  13.2101  13.2195  13.2408  13.2794  13.4120  13.5116
    16.0989  16.1514  16.2030  16.2647  16.3117  16.3256  16.3280  16.3389
    16.3439  16.3677  16.3802  16.3839  16.4012  16.4189  16.4318  16.5226
    16.5521  16.6005  16.7146  16.7324  16.8024  16.8525  16.9657  17.0587
    17.1944  17.2032  17.2072  17.2294  17.2334  17.2433  17.2584  17.2746
    17.2802  17.2927  17.3293  17.3780  17.4202  17.4649  17.5559  17.6649
    17.6949  17.7758  17.8598  17.8763  17.9318  18.0187  18.2688  18.4680
    18.7400  18.7461  18.7574  18.7584  18.7594  18.7607  18.7655  18.7690
    18.7806  18.7960  18.8021  18.8241  18.8302  18.8367  18.8461  18.8583
    18.8875

          k =-0.5000 0.0000 0.0000 ( 31864 PWs)   bands (ev):

   -41.1144 -41.1069 -41.0841 -41.0743 -41.0675 -41.0628 -41.0579 -41.0555
   -41.0502 -41.0424 -41.0372 -41.0364 -41.0334 -41.0284 -41.0241 -41.0228
   -41.0184 -41.0157 -41.0102 -41.0070 -41.0055 -41.0012 -40.9963 -40.9952
   -40.9910 -40.9865 -40.9808 -40.9779 -17.7087 -17.6988 -17.6966 -17.6934
   -17.6910 -17.6780 -17.6736 -17.6523 -17.6057 -17.6003 -17.5957 -17.5946
   -17.5880 -17.5787 -17.5728 -17.5656 -17.5573 -17.5543 -17.5427 -17.5253
   -17.5151 -17.5050 -17.5016 -17.4932 -17.4892 -17.4772 -17.4741 -17.4640
   -17.4486 -17.4415 -17.4373 -17.4227 -17.4184 -17.4129 -17.4123 -17.3966
   -17.3613 -17.3585 -17.3526 -17.3444 -17.3398 -17.3367 -17.3122 -17.3069
   -17.2989 -17.2909 -17.2887 -17.2816 -17.2764 -17.2738 -17.2725 -17.2677
   -17.2642 -17.2599 -17.2572 -17.2555 -17.2506 -17.2493 -17.2474 -17.2415
   -17.2390 -17.2385 -17.2266 -17.2224 -17.2148 -17.2126 -17.2026 -17.1994
   -17.1948 -17.1898 -17.1853 -17.1832 -17.1805 -17.1771 -17.1745 -17.1722
   -17.1690 -17.1672 -17.1660 -17.1629 -17.1587 -17.1524 -17.1482 -17.1429
    -0.4047  -0.2798   0.5960   0.6708   0.7284   0.8158   0.8702   0.8910
     0.9198   0.9455   0.9630   1.0088   1.1464   1.2280   1.2464   1.3306
     1.4698   1.4766   1.5278   1.5617   1.5683   1.5844   1.6207   1.6491
     1.6660   1.6842   1.6908   1.7058   1.7205   1.7280   1.8370   1.8931
     8.3637   8.4173   8.5091   8.6071   9.1258   9.1514   9.2010   9.3210
     9.5803   9.6771   9.8309   9.8829   9.9022   9.9213  10.0328  10.0760
    10.1565  10.2059  10.2559  10.2758  10.2904  10.3165  10.3426  10.3738
    10.3876  10.4397  10.4961  10.5158  10.5390  10.5706  10.8224  11.0082
    11.1096  11.1419  11.2180  11.2363  11.2439  11.2707  11.2967  11.3154
    11.3191  11.3425  11.3454  11.3802  11.4143  11.4421  11.4657  11.4709
    11.4944  11.5122  11.5197  11.5414  11.5677  11.6009  11.6681  11.7340
    11.7689  11.8402  11.8632  11.9970  12.0151  12.0697  12.1024  12.1084
    12.1270  12.1650  12.1929  12.2416  12.2776  12.3027  12.3191  12.3297
    12.3651  12.3757  12.4175  12.4542  12.4630  12.4975  12.5274  12.5402
    12.5893  12.6089  12.6462  12.6873  12.8497  12.9796  13.0248  13.1614
    13.2931  13.3153  13.3937  13.4240  14.0128  14.0476  14.0586  14.0683
    14.0740  14.3056  15.5798  15.6237  15.7355  15.7427  15.8103  15.9499
    16.1574  16.2093  16.3133  16.3482  16.3935  16.4068  16.5163  16.5956
    17.3134  17.3172  17.4124  17.4258  17.6070  17.6648  17.6804  17.6950
    17.7089  17.7476  17.7824  17.7907  17.8034  17.8297  17.9151  17.9430
    17.9666  17.9732  17.9778  17.9853  18.0150  18.0595  18.0641  18.0689
    18.0936  18.1154  18.1234  18.1419  18.1629  18.2244  18.2336  18.2490
    18.2670  18.2778  18.2815  18.3211  18.3408  18.4060  18.4330  18.4467
    18.4639  18.4767  18.4874  18.5073  18.5478  18.5567  18.5690  18.5834
    18.5974

          k = 0.0000-0.5000 0.0000 ( 31864 PWs)   bands (ev):

   -41.1174 -41.1041 -41.0811 -41.0743 -41.0679 -41.0651 -41.0582 -41.0522
   -41.0491 -41.0448 -41.0414 -41.0361 -41.0320 -41.0297 -41.0244 -41.0233
   -41.0206 -41.0112 -41.0085 -41.0065 -41.0045 -41.0024 -40.9994 -40.9952
   -40.9886 -40.9849 -40.9825 -40.9784 -17.7186 -17.7123 -17.7092 -17.7079
   -17.6861 -17.6701 -17.6632 -17.6231 -17.6171 -17.6110 -17.6004 -17.5821
   -17.5772 -17.5700 -17.5587 -17.5567 -17.5551 -17.5441 -17.5260 -17.5240
   -17.5186 -17.5103 -17.5035 -17.5007 -17.4850 -17.4830 -17.4760 -17.4724
   -17.4616 -17.4577 -17.4380 -17.4330 -17.4263 -17.4131 -17.3939 -17.3855
   -17.3732 -17.3676 -17.3533 -17.3427 -17.3392 -17.3307 -17.3111 -17.3077
   -17.3035 -17.2944 -17.2906 -17.2829 -17.2800 -17.2725 -17.2674 -17.2623
   -17.2600 -17.2565 -17.2550 -17.2538 -17.2480 -17.2461 -17.2438 -17.2412
   -17.2381 -17.2339 -17.2328 -17.2308 -17.2266 -17.2214 -17.2057 -17.2039
   -17.2019 -17.1911 -17.1838 -17.1830 -17.1781 -17.1767 -17.1740 -17.1712
   -17.1692 -17.1659 -17.1629 -17.1611 -17.1584 -17.1509 -17.1418 -17.1337
    -0.4565  -0.1850   0.4670   0.5983   0.7957   0.8837   0.8966   0.9143
     0.9347   0.9474   0.9791   1.0148   1.1404   1.1489   1.2703   1.4209
     1.4372   1.4837   1.4967   1.5118   1.5363   1.5483   1.6166   1.6387
     1.6532   1.6690   1.6998   1.7413   1.7666   1.7805   1.8404   1.8704
     8.2177   8.4545   8.5919   8.9947   9.0525   9.0586   9.1232   9.1803
     9.3479   9.6781   9.8239   9.8906   9.9462   9.9803  10.0348  10.1190
    10.1963  10.2088  10.2240  10.2414  10.2963  10.3100  10.3294  10.3773
    10.4017  10.4223  10.4899  10.6172  10.6608  10.7296  10.8416  10.9381
    11.0713  11.1375  11.1798  11.2228  11.2605  11.2745  11.2792  11.2834
    11.2894  11.3180  11.3319  11.3528  11.3599  11.3999  11.4181  11.4421
    11.4980  11.5327  11.5682  11.5943  11.6404  11.6435  11.6665  11.7056
    11.7834  11.8207  11.8690  11.9250  11.9670  12.0588  12.0929  12.1317
    12.1829  12.1975  12.2116  12.2811  12.2965  12.3091  12.3257  12.3599
    12.3747  12.4071  12.4267  12.4521  12.4632  12.4794  12.5034  12.5600
    12.5795  12.5957  12.6510  12.6812  12.8432  12.9799  13.0004  13.1235
    13.2258  13.2615  13.4624  13.4800  13.9288  14.0008  14.0257  14.0797
    14.0894  14.4166  15.4982  15.5103  15.7077  15.8855  15.9066  16.1017
    16.1425  16.1640  16.2356  16.2461  16.4126  16.5007  16.5520  16.6689
    17.2220  17.2332  17.4439  17.4755  17.5029  17.6325  17.6733  17.6758
    17.6855  17.7171  17.7297  17.7399  17.8419  17.8481  17.8754  17.9323
    17.9487  17.9818  18.0086  18.0366  18.0440  18.0577  18.0605  18.0694
    18.0948  18.1024  18.1323  18.1514  18.1611  18.1749  18.2145  18.2224
    18.2560  18.2626  18.3290  18.3557  18.3837  18.4161  18.4211  18.4567
    18.4605  18.4765  18.4816  18.4985  18.5170  18.5518  18.5566  18.5714
    18.6031

          k =-0.5000 0.0000 0.5000 ( 31736 PWs)   bands (ev):

   -41.1050 -41.1001 -41.0923 -41.0885 -41.0771 -41.0640 -41.0553 -41.0544
   -41.0484 -41.0427 -41.0353 -41.0340 -41.0323 -41.0234 -41.0205 -41.0199
   -41.0180 -41.0116 -41.0093 -41.0070 -41.0054 -41.0043 -40.9964 -40.9946
   -40.9936 -40.9878 -40.9828 -40.9796 -17.6800 -17.6794 -17.6755 -17.6630
   -17.6612 -17.6574 -17.6513 -17.6380 -17.6212 -17.6176 -17.6151 -17.6073
   -17.6062 -17.6038 -17.6009 -17.5953 -17.5864 -17.5780 -17.5704 -17.5586
   -17.5527 -17.5432 -17.5339 -17.5107 -17.4883 -17.4691 -17.4651 -17.4572
   -17.4437 -17.4308 -17.4130 -17.3854 -17.3709 -17.3584 -17.3566 -17.3481
   -17.3415 -17.3394 -17.3327 -17.3319 -17.3295 -17.3241 -17.3172 -17.3137
   -17.3104 -17.3075 -17.2993 -17.2930 -17.2905 -17.2875 -17.2854 -17.2795
   -17.2751 -17.2722 -17.2688 -17.2672 -17.2608 -17.2546 -17.2464 -17.2395
   -17.2321 -17.2247 -17.2214 -17.2177 -17.2159 -17.2133 -17.2126 -17.2034
   -17.1999 -17.1983 -17.1946 -17.1923 -17.1919 -17.1877 -17.1858 -17.1842
   -17.1815 -17.1768 -17.1693 -17.1599 -17.1429 -17.1412 -17.1267 -17.1160
    -0.1130  -0.0367   0.0898   0.1867   0.9677   1.0184   1.0474   1.0585
     1.0989   1.1303   1.1588   1.1678   1.1821   1.2010   1.2176   1.2316
     1.2773   1.2788   1.3181   1.3250   1.3824   1.4922   1.5976   1.5989
     1.6111   1.6468   1.6666   1.6734   1.6836   1.8042   1.8611   1.9967
     8.4822   8.6680   8.7823   9.0524   9.1162   9.4161   9.4379   9.4932
     9.6423   9.6984   9.7679   9.7950   9.8670   9.8887   9.9350   9.9450
    10.0192  10.0340  10.0660  10.0930  10.2121  10.2431  10.2509  10.3129
    10.3491  10.4023  10.6673  10.6993  10.7307  10.7889  10.8195  10.9408
    10.9635  11.0392  11.1138  11.1455  11.2249  11.3058  11.4143  11.4208
    11.4309  11.4627  11.4911  11.5306  11.5348  11.5397  11.5663  11.5914
    11.6205  11.6260  11.6701  11.6837  11.7441  11.7549  11.8307  11.8608
    11.9224  11.9757  11.9980  12.0225  12.0364  12.0477  12.0922  12.1148
    12.1195  12.1344  12.1456  12.1555  12.1791  12.2109  12.2204  12.2225
    12.2527  12.2716  12.2805  12.3008  12.3290  12.3687  12.3952  12.4369
    12.4541  12.5077  12.5182  12.5416  12.5979  12.6237  12.6565  12.7550
    13.1060  13.2439  13.2958  13.3034  13.3407  13.3688  13.4043  13.5935
    15.6193  15.6452  15.7353  15.7752  15.9137  15.9595  16.0496  16.1308
    16.1761  16.2685  16.3341  16.4075  16.5887  16.6736  16.7118  16.7370
    16.7537  16.7770  16.8000  16.8679  16.9517  17.0111  17.1676  17.1869
    17.2486  17.2595  17.3547  17.4313  17.4561  17.6495  17.7950  17.8234
    17.8324  17.8480  17.8732  17.9166  17.9470  17.9740  18.0102  18.0551
    18.1104  18.1355  18.1473  18.1997  18.2094  18.2651  18.3181  18.3294
    18.3703  18.3828  18.3983  18.4233  18.4448  18.4930  18.5152  18.5449
    18.5723  18.5964  18.6048  18.6219  18.6432  18.6681  18.7408  18.7672
    18.7759

          k =-0.5000 0.5000 0.0000 ( 31736 PWs)   bands (ev):

   -41.1071 -41.0983 -41.0953 -41.0863 -41.0724 -41.0665 -41.0541 -41.0506
   -41.0478 -41.0442 -41.0420 -41.0373 -41.0294 -41.0235 -41.0221 -41.0186
   -41.0169 -41.0140 -41.0087 -41.0059 -41.0029 -41.0012 -40.9998 -40.9956
   -40.9944 -40.9849 -40.9821 -40.9815 -17.6763 -17.6727 -17.6712 -17.6677
   -17.6650 -17.6617 -17.6514 -17.6421 -17.6214 -17.6174 -17.6124 -17.6079
   -17.6037 -17.6012 -17.5998 -17.5912 -17.5884 -17.5826 -17.5701 -17.5635
   -17.5478 -17.5290 -17.5172 -17.5070 -17.4994 -17.4843 -17.4781 -17.4602
   -17.4488 -17.4449 -17.4176 -17.4088 -17.3627 -17.3551 -17.3536 -17.3448
   -17.3408 -17.3405 -17.3380 -17.3315 -17.3272 -17.3186 -17.3173 -17.3090
   -17.3078 -17.3028 -17.2972 -17.2966 -17.2892 -17.2818 -17.2816 -17.2768
   -17.2720 -17.2707 -17.2650 -17.2624 -17.2531 -17.2418 -17.2385 -17.2348
   -17.2309 -17.2258 -17.2232 -17.2196 -17.2170 -17.2151 -17.2114 -17.2093
   -17.2022 -17.2010 -17.1942 -17.1909 -17.1891 -17.1884 -17.1848 -17.1829
   -17.1808 -17.1791 -17.1735 -17.1720 -17.1468 -17.1397 -17.1318 -17.1197
    -0.1726  -0.0214   0.1536   0.2363   0.8697   0.9260   1.0198   1.0763
     1.1488   1.1567   1.1654   1.1786   1.1954   1.2143   1.2222   1.2420
     1.2522   1.2552   1.3001   1.3434   1.3656   1.4193   1.5722   1.6251
     1.6477   1.6838   1.6946   1.6966   1.7948   1.8084   1.8633   1.8896
     8.5965   8.6518   8.8303   8.8951   9.3434   9.3716   9.4209   9.4848
     9.5133   9.6156   9.7220   9.7298   9.7910   9.8807   9.8872   9.9339
     9.9767  10.0091  10.0305  10.0974  10.1605  10.2585  10.2930  10.3690
    10.4085  10.4600  10.6627  10.7047  10.7401  10.8716  10.9186  11.0100
    11.0368  11.1049  11.1413  11.1715  11.1824  11.2477  11.2732  11.3943
    11.4691  11.4788  11.4792  11.5000  11.5214  11.5308  11.5529  11.5857
    11.6037  11.6792  11.7049  11.7197  11.7805  11.8340  11.8684  11.9299
    11.9546  11.9854  12.0148  12.0373  12.0485  12.0674  12.0818  12.1039
    12.1260  12.1458  12.1528  12.1695  12.1828  12.2075  12.2174  12.2194
    12.2350  12.2786  12.2798  12.3091  12.3256  12.3394  12.3763  12.3805
    12.4257  12.4859  12.5007  12.5290  12.5452  12.6120  12.6685  12.7405
    13.2081  13.2284  13.2672  13.2819  13.2952  13.3340  13.3938  13.4912
    15.6230  15.6859  15.7145  15.7628  15.8624  15.9327  16.1063  16.1250
    16.1704  16.2154  16.3303  16.4820  16.6482  16.6624  16.6756  16.7030
    16.7298  16.7552  16.8027  16.8404  16.9022  17.0928  17.2111  17.2624
    17.3385  17.3544  17.3956  17.4683  17.4968  17.6755  17.8046  17.8171
    17.8533  17.8664  17.8722  17.8891  17.9208  17.9264  17.9389  17.9457
    18.0676  18.1112  18.1818  18.2112  18.2286  18.2350  18.2480  18.3323
    18.3583  18.3793  18.4072  18.4353  18.4392  18.4654  18.4740  18.5145
    18.5332  18.5661  18.6044  18.6154  18.6433  18.6574  18.7210  18.7307
    18.7840

     the Fermi energy is    16.5915 ev

!    total energy              =   -6212.14640148 Ry
     total all-electron energy =    -53268.120545 Ry
     estimated scf accuracy    <       0.00000058 Ry
     smearing contrib. (-TS)   =      -0.00358824 Ry
     internal energy E=F+TS    =   -6212.14281323 Ry

     The total energy is F=E-TS. E is the sum of the following terms:
     one-electron contribution =    -866.14067553 Ry
     hartree contribution      =     754.55072119 Ry
     xc contribution           =    -718.86190216 Ry
     ewald contribution        =   -3158.59812834 Ry
     one-center paw contrib.   =   -2223.09282840 Ry

     convergence has been achieved in  10 iterations

     Forces acting on atoms (cartesian axes, Ry/au):

     atom    1 type  3   force =     0.00055460   -0.00057276    0.00873655
     atom    2 type  2   force =     0.03166744    0.00060955   -0.00039274
     atom    3 type  3   force =    -0.00599913   -0.00273218   -0.00675471
     atom    4 type  2   force =     0.02627246    0.00079520    0.02933441
     atom    5 type  3   force =    -0.01506510   -0.00788838   -0.00006339
     atom    6 type  2   force =    -0.00074735    0.00289244   -0.00322294
     atom    7 type  3   force =    -0.00839511    0.00751619    0.00221800
     atom    8 type  2   force =     0.00270036   -0.00257096   -0.03309230
     atom    9 type  3   force =    -0.00708186   -0.00990182   -0.00769687
     atom   10 type  2   force =     0.00233196    0.02822630    0.00026844
     atom   11 type  1   force =     0.00409272    0.00102130   -0.00565456
     atom   12 type  2   force =    -0.02838879    0.00003189   -0.02920245
     atom   13 type  3   force =     0.00121693   -0.01079919   -0.00101646
     atom   14 type  2   force =     0.00046436    0.02996888    0.00359657
     atom   15 type  1   force =    -0.00060420    0.00102181   -0.00031773
     atom   16 type  2   force =     0.02939000    0.00073960    0.02709650
     atom   17 type  3   force =     0.00308362    0.00035912    0.00881250
     atom   18 type  2   force =     0.00086751   -0.00039533   -0.00033722
     atom   19 type  3   force =     0.00190366    0.00254689    0.00023280
     atom   20 type  2   force =     0.00130964   -0.00105631    0.00288934
     atom   21 type  3   force =    -0.00293650    0.00788352   -0.00952451
     atom   22 type  2   force =    -0.00066867   -0.00271658    0.00023971
     atom   23 type  3   force =    -0.00420904   -0.00764084   -0.00132380
     atom   24 type  2   force =    -0.00026336    0.00267509   -0.00279353
     atom   25 type  3   force =    -0.00569550    0.00935625   -0.00746424
     atom   26 type  2   force =    -0.00196764   -0.02692195    0.00008386
     atom   27 type  3   force =     0.00166021    0.00132587    0.00050763
[...]
    14.0877  14.3409  15.3928  15.4095  15.6559  15.8004  15.8150  16.0451
    16.0593  16.1286  16.1460  16.2134  16.3648  16.4527  16.4984  16.6394
    17.1527  17.1696  17.4077  17.4240  17.4590  17.5036  17.5834  17.5953
    17.6178  17.6461  17.6725  17.7141  17.7818  17.8111  17.8167  17.8632
    17.8879  17.9315  17.9804  17.9863  18.0065  18.0085  18.0198  18.0368
    18.0483  18.0619  18.1000  18.1166  18.1476  18.1572  18.1997  18.2257
    18.2390  18.2460  18.2830  18.3135  18.3300  18.3394  18.3747  18.3815
    18.4027  18.4136  18.4308  18.4497  18.4725  18.5109  18.5223  18.5325
    18.5647

          k =-0.5000 0.0000 0.5000 ( 31736 PWs)   bands (ev):

   -41.1643 -41.1445 -41.1421 -41.1336 -41.1144 -41.1060 -41.1015 -41.0952
   -41.0944 -41.0913 -41.0806 -41.0779 -41.0713 -41.0683 -41.0641 -41.0620
   -41.0601 -41.0560 -41.0532 -41.0520 -41.0475 -41.0444 -41.0329 -41.0286
   -41.0235 -41.0100 -41.0068 -41.0034 -17.7250 -17.7197 -17.7163 -17.7091
   -17.7053 -17.7015 -17.6950 -17.6819 -17.6614 -17.6596 -17.6506 -17.6483
   -17.6448 -17.6376 -17.6360 -17.6315 -17.6258 -17.6169 -17.6104 -17.5997
   -17.5814 -17.5801 -17.5659 -17.5503 -17.5276 -17.5092 -17.4985 -17.4933
   -17.4810 -17.4725 -17.4527 -17.4214 -17.4040 -17.4022 -17.3937 -17.3890
   -17.3842 -17.3808 -17.3768 -17.3759 -17.3713 -17.3663 -17.3639 -17.3566
   -17.3544 -17.3503 -17.3415 -17.3351 -17.3299 -17.3214 -17.3195 -17.3147
   -17.3116 -17.3069 -17.3049 -17.2997 -17.2982 -17.2956 -17.2880 -17.2720
   -17.2671 -17.2637 -17.2593 -17.2577 -17.2534 -17.2489 -17.2456 -17.2422
   -17.2382 -17.2344 -17.2309 -17.2286 -17.2226 -17.2201 -17.2162 -17.2121
   -17.2103 -17.2082 -17.1992 -17.1908 -17.1869 -17.1827 -17.1577 -17.1494
    -0.1803  -0.0876   0.0674   0.1716   0.9256   0.9485   0.9699   1.0215
     1.0676   1.0837   1.1277   1.1513   1.1544   1.1864   1.1909   1.1951
     1.2386   1.2470   1.2742   1.2985   1.4282   1.5564   1.5798   1.6000
     1.6136   1.6455   1.6719   1.6914   1.7582   1.8237   1.8985   2.0475
     8.5100   8.7393   8.8743   9.1132   9.1549   9.4103   9.4272   9.4864
     9.6070   9.6961   9.7425   9.7843   9.8589   9.8735   9.9281   9.9300
    10.0105  10.0166  10.0586  10.0810  10.1868  10.2118  10.2308  10.2739
    10.3176  10.3685  10.6652  10.6821  10.7151  10.7463  10.7996  10.9391
    10.9687  11.0344  11.0887  11.1224  11.2118  11.2651  11.3713  11.3881
    11.4017  11.4305  11.4613  11.4814  11.4929  11.5200  11.5346  11.5688
    11.6336  11.6468  11.6622  11.6932  11.7369  11.7697  11.7987  11.8259
    11.9400  11.9690  11.9845  12.0029  12.0391  12.0689  12.0742  12.1171
    12.1333  12.1430  12.1542  12.1711  12.1756  12.2206  12.2334  12.2432
    12.2996  12.3192  12.3247  12.3323  12.3583  12.3899  12.4485  12.4663
    12.4879  12.5661  12.5877  12.5987  12.6546  12.7111  12.7313  12.8882
    13.1506  13.2488  13.2854  13.3131  13.3415  13.3834  13.3987  13.6219
    15.4792  15.5415  15.6464  15.6722  15.8626  15.9056  16.0313  16.0564
    16.1139  16.1712  16.2893  16.3653  16.5443  16.6012  16.6642  16.6744
    16.7123  16.7394  16.7766  16.8168  16.9039  16.9670  17.0877  17.1484
    17.1934  17.2282  17.3245  17.3980  17.4196  17.5865  17.7436  17.7587
    17.7871  17.8111  17.8447  17.8780  17.9192  17.9268  17.9463  18.0099
    18.0580  18.0752  18.0920  18.1553  18.1829  18.2407  18.2845  18.3044
    18.3205  18.3335  18.3546  18.3566  18.3982  18.4219  18.4712  18.4930
    18.5316  18.5521  18.5669  18.5899  18.6238  18.6484  18.7169  18.7185
    18.7425

          k =-0.5000 0.5000 0.0000 ( 31736 PWs)   bands (ev):

   -41.1662 -41.1471 -41.1361 -41.1287 -41.1204 -41.1102 -41.0989 -41.0959
   -41.0924 -41.0872 -41.0839 -41.0771 -41.0716 -41.0703 -41.0649 -41.0632
   -41.0607 -41.0583 -41.0533 -41.0478 -41.0476 -41.0433 -41.0321 -41.0304
   -41.0179 -41.0145 -41.0070 -41.0028 -17.7244 -17.7211 -17.7169 -17.7106
   -17.7015 -17.6977 -17.6900 -17.6823 -17.6606 -17.6573 -17.6527 -17.6487
   -17.6426 -17.6383 -17.6350 -17.6282 -17.6276 -17.6228 -17.6101 -17.6061
   -17.5869 -17.5667 -17.5502 -17.5446 -17.5375 -17.5231 -17.5119 -17.4991
   -17.4928 -17.4747 -17.4515 -17.4439 -17.4115 -17.4069 -17.3928 -17.3913
   -17.3869 -17.3818 -17.3733 -17.3670 -17.3644 -17.3595 -17.3529 -17.3492
   -17.3481 -17.3387 -17.3368 -17.3347 -17.3284 -17.3199 -17.3167 -17.3110
   -17.3101 -17.3050 -17.3023 -17.2953 -17.2931 -17.2871 -17.2771 -17.2741
   -17.2671 -17.2646 -17.2627 -17.2574 -17.2551 -17.2545 -17.2502 -17.2391
   -17.2383 -17.2371 -17.2333 -17.2290 -17.2279 -17.2243 -17.2211 -17.2141
   -17.2114 -17.2103 -17.2047 -17.1968 -17.1832 -17.1769 -17.1641 -17.1491
    -0.2327  -0.0700   0.1298   0.2150   0.8063   0.8895   0.9635   1.0282
     1.0953   1.1113   1.1283   1.1472   1.1600   1.1860   1.1901   1.2225
     1.2351   1.2391   1.2626   1.3238   1.3801   1.4702   1.5946   1.6078
     1.6521   1.6596   1.6845   1.7423   1.8360   1.8709   1.9014   1.9402
     8.6190   8.7051   8.9136   8.9904   9.3259   9.3663   9.4077   9.4807
     9.5158   9.6008   9.7160   9.7358   9.7900   9.8610   9.8647   9.9090
     9.9496  10.0124  10.0275  10.0851  10.1466  10.2367  10.2675  10.3464
    10.3916  10.4311  10.6480  10.6772  10.7319  10.8507  10.8747  10.9953
    11.0205  11.1065  11.1272  11.1345  11.1583  11.2385  11.2856  11.3635
    11.4175  11.4257  11.4367  11.4505  11.4922  11.5207  11.5309  11.5672
    11.5923  11.6374  11.6684  11.7052  11.7724  11.8170  11.8664  11.9132
    11.9507  11.9861  12.0022  12.0202  12.0324  12.0430  12.0711  12.1315
    12.1455  12.1557  12.1684  12.1851  12.1954  12.2147  12.2395  12.2597
    12.2910  12.3062  12.3256  12.3356  12.3427  12.3689  12.4216  12.4303
    12.4945  12.5469  12.5670  12.5937  12.6443  12.7035  12.7456  12.8444
    13.2439  13.2480  13.2529  13.2904  13.3170  13.3475  13.4207  13.4707
    15.5031  15.6045  15.6443  15.7090  15.8021  15.8540  16.0382  16.0555
    16.0927  16.1977  16.2185  16.3916  16.5879  16.5961  16.6130  16.6858
    16.6904  16.7048  16.7427  16.7828  16.8332  17.0601  17.0996  17.2380
    17.3059  17.3141  17.3603  17.4502  17.4948  17.6558  17.7721  17.7844
    17.8064  17.8189  17.8398  17.8521  17.8805  17.8937  17.8963  17.9020
    18.0000  18.0420  18.1335  18.1680  18.1741  18.1905  18.2192  18.2935
    18.3003  18.3426  18.3660  18.3831  18.3862  18.4103  18.4334  18.4663
    18.4767  18.5268  18.5569  18.5817  18.6190  18.6264  18.7028  18.7276
    18.7441

     the Fermi energy is    16.5400 ev

!    total energy              =   -6212.17685464 Ry
     total all-electron energy =    -53268.150998 Ry
     estimated scf accuracy    <          4.7E-09 Ry
     smearing contrib. (-TS)   =      -0.00402692 Ry
     internal energy E=F+TS    =   -6212.17282772 Ry

     The total energy is F=E-TS. E is the sum of the following terms:
     one-electron contribution =    -853.11965039 Ry
     hartree contribution      =     747.63675923 Ry
     xc contribution           =    -718.84513713 Ry
     ewald contribution        =   -3164.73450267 Ry
     one-center paw contrib.   =   -2223.11029677 Ry

     convergence has been achieved in   9 iterations

     Forces acting on atoms (cartesian axes, Ry/au):

     atom    1 type  3   force =    -0.00005688   -0.00081590   -0.00033181
     atom    2 type  2   force =     0.00022811    0.00007805    0.00009519
     atom    3 type  3   force =    -0.00057577    0.00041978   -0.00006789
     atom    4 type  2   force =     0.00042779   -0.00032804    0.00009708
     atom    5 type  3   force =    -0.00126861   -0.00063703   -0.00014385
     atom    6 type  2   force =    -0.00038664   -0.00033940   -0.00015230
     atom    7 type  3   force =    -0.00030008    0.00039716   -0.00024399
     atom    8 type  2   force =    -0.00002691    0.00032405    0.00032590
     atom    9 type  3   force =     0.00006727   -0.00121784   -0.00013873
     atom   10 type  2   force =    -0.00021981    0.00028796    0.00029852
     atom   11 type  1   force =    -0.00054470    0.00011964    0.00018374
     atom   12 type  2   force =    -0.00050139    0.00010088   -0.00048804
     atom   13 type  3   force =     0.00069202   -0.00017449    0.00046857
     atom   14 type  2   force =     0.00055739    0.00030785   -0.00063062
     atom   15 type  1   force =     0.00008726   -0.00027531   -0.00034199
     atom   16 type  2   force =     0.00037939    0.00017558    0.00013059
     atom   17 type  3   force =     0.00009337    0.00097916   -0.00016757
     atom   18 type  2   force =    -0.00010082    0.00024468   -0.00027572
     atom   19 type  3   force =    -0.00073032   -0.00068072    0.00011824
     atom   20 type  2   force =    -0.00013336   -0.00004687    0.00001060
     atom   21 type  3   force =    -0.00067938    0.00050142   -0.00071648
     atom   22 type  2   force =    -0.00038613    0.00022654   -0.00048479
     atom   23 type  3   force =    -0.00034726   -0.00013385    0.00023288
     atom   24 type  2   force =    -0.00002955   -0.00012651   -0.00003564
     atom   25 type  3   force =    -0.00040018    0.00153420   -0.00053293
     atom   26 type  2   force =    -0.00004510   -0.00027442    0.00005172
     atom   27 type  3   force =    -0.00040752   -0.00018647   -0.00035027
     atom   28 type  2   force =     0.00021281    0.00010845    0.00023027
     atom   29 type  3   force =     0.00101278    0.00059441    0.00057492
     atom   30 type  2   force =     0.00057252    0.00007150   -0.00048007
     atom   31 type  3   force =     0.00009173   -0.00014676    0.00007571
     atom   32 type  2   force =    -0.00011017    0.00027655   -0.00017381
     atom   33 type  1   force =    -0.00003310   -0.00046473   -0.00038340
     atom   34 type  2   force =    -0.00004711    0.00028184    0.00025244
     atom   35 type  1   force =     0.00031844    0.00024492    0.00023721
     atom   36 type  2   force =    -0.00009487   -0.00051198   -0.00052061
     atom   37 type  3   force =     0.00068986   -0.00037724    0.00037849
     atom   38 type  2   force =    -0.00054928    0.00024473   -0.00016729
     atom   39 type  3   force =     0.00025718    0.00016131   -0.00060490
     atom   40 type  2   force =     0.00012520   -0.00071126    0.00043887
     atom   41 type  3   force =     0.00004344   -0.00111730    0.00077463
     atom   42 type  2   force =     0.00010424   -0.00005755    0.00015392
     atom   43 type  3   force =     0.00058107    0.00003262   -0.00002557
     atom   44 type  2   force =     0.00017665    0.00008500    0.00012965
     atom   45 type  3   force =     0.00003128    0.00047170   -0.00007982
     atom   46 type  2   force =     0.00025960   -0.00059354    0.00031179
     atom   47 type  3   force =    -0.00009496    0.00045296    0.00028555
     atom   48 type  2   force =    -0.00022962    0.00014004   -0.00034929
     atom   49 type  3   force =    -0.00009626    0.00035741    0.00018654
     atom   50 type  2   force =     0.00009579   -0.00001091   -0.00021503
     atom   51 type  3   force =     0.00036940   -0.00035832    0.00053670
     atom   52 type  2   force =    -0.00016279    0.00005559    0.00009048
     atom   53 type  3   force =    -0.00000218    0.00002031    0.00031281
     atom   54 type  2   force =    -0.00059358    0.00001944    0.00043154
     atom   55 type  3   force =     0.00038769   -0.00023171    0.00018075
     atom   56 type  2   force =     0.00004531   -0.00023459    0.00010812
     atom   57 type  3   force =     0.00031583    0.00096658    0.00009245
     atom   58 type  2   force =    -0.00009825   -0.00001227   -0.00008239
     atom   59 type  3   force =     0.00075943    0.00031188   -0.00015529
     atom   60 type  2   force =     0.00005224    0.00007202    0.00018012
     atom   61 type  3   force =    -0.00028526   -0.00024848   -0.00046320
     atom   62 type  2   force =     0.00046015    0.00038148    0.00031066
     atom   63 type  3   force =    -0.00002008   -0.00061890    0.00015042
     atom   64 type  2   force =     0.00006267   -0.00011529    0.00036623

     Total force =     0.005552     Total SCF correction =     0.000289


     Computing stress (Cartesian axis) and pressure

          total   stress  (Ry/bohr**3)                   (kbar)     P=       31.80
   0.00022903  -0.00000672   0.00001952           33.69       -0.99        2.87
  -0.00000672   0.00020368  -0.00001799           -0.99       29.96       -2.65
   0.00001952  -0.00001799   0.00021581            2.87       -2.65       31.75

     Energy error            =      8.0E-05 Ry
     Gradient error          =      1.5E-03 Ry/Bohr

     number of scf cycles    =   8
     number of bfgs steps    =   7

     energy             old  =   -6212.1767746833 Ry
     energy             new  =   -6212.1768546391 Ry

     CASE: energy            _new < energy            _old

     new trust radius        =       0.0046154907 bohr

     The maximum number of steps has been reached.

     End of BFGS Geometry Optimization

ATOMIC_POSITIONS (angstrom)
Ti            0.0015677014        0.0043629709        0.0129809960
N             2.1776172204        0.0027011253        0.0024802854
Ti           -0.0168386136        2.1049073351        2.0935141551
N             2.1569396451        2.1097520550        2.1748211208
Ti            2.0693225264       -0.0132480863        2.1068961221
N            -0.0028075317        0.0083423016        2.1005986867
Ti            2.0881934291        2.1212980104        0.0033071216
N             0.0087110907        2.1033893775       -0.0820333303
Ti           -0.0121273748       -0.0266666620        4.2045519452
N             2.1158478964        0.0613165846        4.2187449400
Al            0.0279379282        2.1182993990        6.2929071181
N             2.0578897617        2.1106995947        6.2615498313
Ti            2.1136085617       -0.0176670755        6.3318313926
N             0.0043189152        0.0669194728        6.3347016332
Al            2.1092130558        2.1153125690        4.2181627514
N             0.0647801072        2.1116928735        4.2666974689
Ti            0.0075144757        4.2150721399        0.0200390678
N             2.1126582740        4.2170775706       -0.0001244719
Ti            0.0054116687        6.3321563162        2.1162635990
N             2.1130648512        6.3248136465        2.1157545160
Ti            2.1048600375        4.2291340728        2.0867768127
N            -0.0027864204        4.2107404015        2.1095734777
Ti            2.1019520162        6.3173413753       -0.0067593445
N            -0.0008600764        6.3353238775       -0.0072925127
Ti           -0.0089901496        4.2462311341        4.1990981138
N             2.1053557263        4.1644986768        4.2185591546
Ti            0.0039256758        6.3301028580        6.3222892149
N             2.0998473977        6.3279546253        6.3213267909
Ti            2.1376520332        4.2342352704        6.3520176759
N             0.0016701335        4.1557588443        6.3254277568
Ti            2.1212184630        6.3387068773        4.2226742308
N             0.0042491811        6.3278259483        4.2245371918
Al            4.2241727505        0.0116194032        0.0255064159
N             6.2607780900       -0.0076113400        0.0022281358
Al            4.1917516716        2.0875733368        2.1159416949
N             6.2509575558        2.1093438600        2.1174200075
Ti            6.3632311280        0.0147537070        2.1253037158
N             4.2168724853        0.0536186975        2.0562706828
Ti            6.3486580878        2.1204686582        0.0005454301
N             4.2081860977        2.0461720315        0.0612642534
Ti            4.2300332005       -0.0278905409        4.2317184005
N             6.3205692727        0.0012094700        4.2192867271
Ti            4.2426624217        2.1251543381        6.3298124262
N             6.4111119712        2.1101688292        6.3184292501
Ti            6.3268625854        0.0180819519        6.3127305806
N             4.2206949549        0.0124664028        6.4060763215
Ti            6.3189457045        2.0979585782        4.2190702644
N             4.1489405766        2.1012076196        4.1671223936
Ti            4.2135964019        4.2185731647       -0.0146843665
N             6.3268287009        4.2261903538        0.0006511013
Ti            4.2136535915        6.3164247438        2.1337594445
N             6.3255909537        6.3245524948        2.1082596889
Ti            6.3289131794        4.2027700222        2.1021327971
N             4.2174254834        4.1441053409        2.1049965461
Ti            6.3349923509        6.3178911134       -0.0039336750
N             4.2196363587        6.3994281145        0.0084859803
Ti            4.2288092598        4.2453931690        4.2338840406
N             6.3324686240        4.2206321547        4.2185333989
Ti            4.2138907785        6.3137646079        6.3041320028
N             6.3377781068        6.3259990476        6.3296064121
Ti            6.2998827097        4.1968802563        6.3363671132
N             4.2203273745        4.2094748224        6.3339085541
Ti            6.3162083980        6.3426897453        4.2204676084
N             4.2146515675        6.3325503652        4.2128331413



     Writing config-only to output data dir ../output/relax_sqs_all_x/tmp_x0125/TiAlN_x0125_relax.save/
     NEW-OLD atomic charge density approx. for the potential

     Check: negative core charge=   -0.000031
 
     init_run     :      3.68s CPU      3.86s WALL (       1 calls)
     electrons    :    835.45s CPU    851.51s WALL (       8 calls)
     update_pot   :      2.12s CPU      2.15s WALL (       8 calls)
     forces       :     15.98s CPU     16.36s WALL (       8 calls)
     stress       :    164.71s CPU    166.03s WALL (       8 calls)

     Called by init_run:
     wfcinit      :      3.24s CPU      3.36s WALL (       1 calls)
     potinit      :      0.21s CPU      0.22s WALL (       1 calls)
     hinit0       :      0.12s CPU      0.13s WALL (       1 calls)

     Called by electrons:
     c_bands      :    738.53s CPU    750.96s WALL (      84 calls)
     sum_band     :     72.53s CPU     74.52s WALL (      84 calls)
     v_of_rho     :      3.16s CPU      3.23s WALL (      90 calls)
     newd         :      5.62s CPU      6.57s WALL (      90 calls)
     PAW_pot      :     15.34s CPU     15.57s WALL (      98 calls)
     mix_rho      :      3.64s CPU      3.92s WALL (      84 calls)

     Called by c_bands:
     init_us_2    :      7.78s CPU      7.86s WALL (     386 calls)
     init_us_2:cp :      7.78s CPU      7.86s WALL (     386 calls)
     cegterg      :    679.14s CPU    691.15s WALL (     169 calls)

     Called by *egterg:
     cdiaghg      :     91.61s CPU     93.18s WALL (     932 calls)
     h_psi        :    298.48s CPU    302.84s WALL (     954 calls)
     s_psi        :     76.87s CPU     77.41s WALL (     954 calls)
     g_psi        :      1.53s CPU      1.55s WALL (     783 calls)

     Called by h_psi:
     h_psi:calbec :     72.21s CPU     72.70s WALL (     954 calls)
     vloc_psi     :    145.70s CPU    147.96s WALL (     954 calls)
     add_vuspsi   :     77.57s CPU     78.26s WALL (     954 calls)

     General routines
     calbec       :    116.00s CPU    116.79s WALL (    1218 calls)
     fft          :      1.75s CPU      1.80s WALL (    1202 calls)
     ffts         :      1.90s CPU      1.93s WALL (    1609 calls)
     fftw         :    148.90s CPU    151.22s WALL (  314638 calls)
     davcio       :      0.00s CPU      0.28s WALL (       2 calls)
 
     Parallel routines
 
     PWSCF        :  17m 7.77s CPU  17m26.89s WALL

 
   This run was terminated on:   3:23:54  11May2026            

=------------------------------------------------------------------------------=
   JOB DONE.
=------------------------------------------------------------------------------=
