
     Program PWSCF v.7.1 starts on 11May2026 at  4: 0:15 

     This program is part of the open-source Quantum ESPRESSO suite
     for quantum simulation of materials; please cite
         "P. Giannozzi et al., J. Phys.:Condens. Matter 21 395502 (2009);
         "P. Giannozzi et al., J. Phys.:Condens. Matter 29 465901 (2017);
         "P. Giannozzi et al., J. Chem. Phys. 152 154105 (2020);
          URL http://www.quantum-espresso.org", 
     in publications or presentations arising from this work. More details at
     http://www.quantum-espresso.org/quote

     Parallel version (MPI & OpenMP), running on      32 processor cores
     Number of MPI processes:                32
     Threads/MPI process:                     1

     MPI processes distributed on     1 nodes
     91312 MiB available memory on the printing compute node when the environment starts
 
     Reading input from scf_sqs_x0375.in

     Current dimensions of program PWSCF are:
     Max number of different atomic species (ntypx) = 10
     Max number of k-points (npk) = 150000
     Max angular momentum in pseudopotentials (lmaxx) =  4
     file Al.pbe-n-kjpaw_psl.1.0.0.UPF: wavefunction(s)  3S 3P renormalized
     file N.pbe-n-kjpaw_psl.1.0.0.UPF: wavefunction(s)  2S renormalized
     file Ti.pbe-spn-kjpaw_psl.1.0.0.UPF: wavefunction(s)  3S 3P 3D renormalized
 
     K-points division:     npool     =       4
     R & G space division:  proc/nbgrp/npool/nimage =       8
     Subspace diagonalization in iterative solution of the eigenvalue problem:
     one sub-group per band group will be used
     scalapack distributed-memory algorithm (size of sub-group:  2*  2 procs)

 
     Parallelization info
     --------------------
     sticks:   dense  smooth     PW     G-vecs:    dense   smooth      PW
     Min         593     593    163                30853    30853    4409
     Max         595     595    164                30854    30854    4410
     Sum        4749    4749   1305               246825   246825   35273
 
     Using Slab Decomposition
 


     bravais-lattice index     =            0
     lattice parameter (alat)  =      15.7839  a.u.
     unit-cell volume          =    3932.2947 (a.u.)^3
     number of atoms/cell      =           64
     number of atomic types    =            3
     number of electrons       =       436.00
     number of Kohn-Sham states=          262
     kinetic-energy cutoff     =      60.0000  Ry
     charge density cutoff     =     240.0000  Ry
     scf convergence threshold =      1.0E-08
     mixing beta               =       0.2000
     number of iterations used =            8  local-TF  mixing
     Exchange-correlation= SLA  PW   PBX  PBC
                           (   1   4   3   4   0   0   0)

     celldm(1)=  15.783937  celldm(2)=   0.000000  celldm(3)=   0.000000
     celldm(4)=   0.000000  celldm(5)=   0.000000  celldm(6)=   0.000000

     crystal axes: (cart. coord. in units of alat)
               a(1) = (   1.000000   0.000000   0.000000 )  
               a(2) = (   0.000000   1.000000   0.000000 )  
               a(3) = (   0.000000   0.000000   1.000000 )  

     reciprocal axes: (cart. coord. in units 2 pi/alat)
               b(1) = (  1.000000  0.000000  0.000000 )  
               b(2) = (  0.000000  1.000000  0.000000 )  
               b(3) = (  0.000000  0.000000  1.000000 )  


     PseudoPot. # 1 for Al read from file:
     ../../pseudo/Al.pbe-n-kjpaw_psl.1.0.0.UPF
     MD5 check sum: 502b6b27b9c6270cab5dd1084b96fa6d
     Pseudo is Projector augmented-wave + core cor, Zval =  3.0
     Generated using &quot;atomic&quot; code by A. Dal Corso  v.6.3
     Shape of augmentation charge: PSQ
     Using radial grid of 1135 points,  6 beta functions with: 
                l(1) =   0
                l(2) =   0
                l(3) =   1
                l(4) =   1
                l(5) =   2
                l(6) =   2
     Q(r) pseudized with 0 coefficients 


     PseudoPot. # 2 for N  read from file:
     ../../pseudo/N.pbe-n-kjpaw_psl.1.0.0.UPF
     MD5 check sum: 14c48229446f9f2d411169a3abcbc3fa
     Pseudo is Projector augmented-wave + core cor, Zval =  5.0
     Generated using &quot;atomic&quot; code by A. Dal Corso  v.6.3
     Shape of augmentation charge: PSQ
     Using radial grid of 1085 points,  4 beta functions with: 
                l(1) =   0
                l(2) =   0
                l(3) =   1
                l(4) =   1
     Q(r) pseudized with 0 coefficients 


     PseudoPot. # 3 for Ti read from file:
     ../../pseudo/Ti.pbe-spn-kjpaw_psl.1.0.0.UPF
     MD5 check sum: 01f69b0d8ba4438b2e03ac6ea4af1c0b
     Pseudo is Projector augmented-wave + core cor, Zval = 12.0
     Generated using &quot;atomic&quot; code by A. Dal Corso  v.6.2.2
     Shape of augmentation charge: PSQ
     Using radial grid of 1177 points,  6 beta functions with: 
                l(1) =   0
                l(2) =   0
                l(3) =   1
                l(4) =   1
                l(5) =   2
                l(6) =   2
     Q(r) pseudized with 0 coefficients 


     atomic species   valence    mass     pseudopotential
        Al             3.00    26.98200     Al( 1.00)
        N              5.00    14.00700     N ( 1.00)
        Ti            12.00    47.86700     Ti( 1.00)

     No symmetry found



   Cartesian axes

     site n.     atom                  positions (alat units)
         1           Al  tau(   1) = (  -0.0014561  -0.0021030  -0.0042593  )
         2           N   tau(   2) = (   0.2386328  -0.0022206  -0.0089150  )
         3           Ti  tau(   3) = (   0.0023152   0.2444411   0.2554659  )
         4           N   tau(   4) = (   0.2493994   0.2496649   0.2505888  )
         5           Ti  tau(   5) = (   0.2487353   0.0019830   0.2506880  )
         6           N   tau(   6) = (  -0.0110979  -0.0014026   0.2374280  )
         7           Ti  tau(   7) = (   0.2535887   0.2533648   0.0018323  )
         8           N   tau(   8) = (  -0.0017485   0.2523974  -0.0014036  )
         9           Ti  tau(   9) = (  -0.0007757   0.0042790   0.4930313  )
        10           N   tau(  10) = (   0.2485480  -0.0075691   0.5094146  )
        11           Ti  tau(  11) = (   0.0039060   0.2501781   0.7446578  )
        12           N   tau(  12) = (   0.2486419   0.2371303   0.7493962  )
        13           Al  tau(  13) = (   0.2443569  -0.0039398   0.7496005  )
        14           N   tau(  14) = (  -0.0046034  -0.0064318   0.7555178  )
        15           Ti  tau(  15) = (   0.2505884   0.2507774   0.4987676  )
        16           N   tau(  16) = (   0.0011940   0.2630890   0.5008809  )
        17           Al  tau(  17) = (  -0.0050487   0.5017777  -0.0001153  )
        18           N   tau(  18) = (   0.2353188   0.5010196  -0.0004721  )
        19           Ti  tau(  19) = (   0.0080614   0.7562527   0.2534878  )
        20           N   tau(  20) = (   0.2595072   0.7507305   0.2576364  )
        21           Ti  tau(  21) = (   0.2516769   0.4973547   0.2463828  )
        22           N   tau(  22) = (  -0.0092110   0.5023718   0.2484035  )
        23           Ti  tau(  23) = (   0.2551804   0.7458914   0.0011624  )
        24           N   tau(  24) = (  -0.0050865   0.7480582  -0.0040753  )
        25           Al  tau(  25) = (  -0.0012472   0.5046277   0.5009013  )
        26           N   tau(  26) = (   0.2408694   0.5073233   0.5011598  )
        27           Al  tau(  27) = (   0.0003733   0.7494201   0.7515248  )
        28           N   tau(  28) = (   0.2428956   0.7571050   0.7446462  )
        29           Ti  tau(  29) = (   0.2579958   0.4983662   0.7535421  )
        30           N   tau(  30) = (  -0.0073230   0.5062810   0.7513467  )
        31           Al  tau(  31) = (   0.2497734   0.7494140   0.5020150  )
        32           N   tau(  32) = (   0.0054493   0.7438971   0.5056389  )
        33           Ti  tau(  33) = (   0.4927617   0.0041109   0.0006158  )
        34           N   tau(  34) = (   0.7565595  -0.0057476  -0.0013521  )
        35           Ti  tau(  35) = (   0.4967788   0.2507439   0.2522106  )
        36           N   tau(  36) = (   0.7489612   0.2488506   0.2484127  )
        37           Al  tau(  37) = (   0.7491442  -0.0039884   0.2421109  )
        38           N   tau(  38) = (   0.5108159  -0.0075437   0.2487909  )
        39           Ti  tau(  39) = (   0.7451133   0.2506225   0.0001635  )
        40           N   tau(  40) = (   0.5008029   0.2495317   0.0012563  )
        41           Ti  tau(  41) = (   0.5003834   0.0062412   0.4996516  )
        42           N   tau(  42) = (   0.7512843  -0.0018125   0.5015409  )
        43           Ti  tau(  43) = (   0.4960024   0.2543072   0.7475855  )
        44           N   tau(  44) = (   0.7509264   0.2464846   0.7510768  )
        45           Al  tau(  45) = (   0.7521999  -0.0038773   0.7557773  )
        46           N   tau(  46) = (   0.5047280  -0.0031944   0.7516120  )
        47           Ti  tau(  47) = (   0.7497215   0.2448199   0.4995552  )
        48           N   tau(  48) = (   0.4994544   0.2506077   0.4990499  )
        49           Ti  tau(  49) = (   0.4929358   0.4961427  -0.0029664  )
        50           N   tau(  50) = (   0.7567079   0.5053893  -0.0005520  )
        51           Al  tau(  51) = (   0.5027438   0.7487350   0.2510119  )
        52           N   tau(  52) = (   0.7461181   0.7514973   0.2466096  )
        53           Al  tau(  53) = (   0.7524867   0.5041831   0.2491676  )
        54           N   tau(  54) = (   0.5118449   0.5075129   0.2499035  )
        55           Al  tau(  55) = (   0.7521184   0.7490813   0.0003824  )
        56           N   tau(  56) = (   0.5088989   0.7501511   0.0071401  )
        57           Ti  tau(  57) = (   0.4984306   0.4930588   0.5031425  )
        58           N   tau(  58) = (   0.7580152   0.5028255   0.5003791  )
        59           Ti  tau(  59) = (   0.4940546   0.7442065   0.7512086  )
        60           N   tau(  60) = (   0.7555690   0.7520237   0.7543329  )
        61           Al  tau(  61) = (   0.7562791   0.5042607   0.7505913  )
        62           N   tau(  62) = (   0.5173294   0.5023622   0.7498754  )
        63           Ti  tau(  63) = (   0.7478372   0.7563792   0.5010676  )
        64           N   tau(  64) = (   0.4935824   0.7485051   0.4947716  )

     number of k points=     8  Gaussian smearing, width (Ry)=  0.0050
                       cart. coord. in units 2pi/alat
        k(    1) = (   0.0000000   0.0000000   0.0000000), wk =   0.2500000
        k(    2) = (   0.0000000   0.0000000  -0.5000000), wk =   0.2500000
        k(    3) = (   0.0000000  -0.5000000  -0.5000000), wk =   0.2500000
        k(    4) = (  -0.5000000  -0.5000000  -0.5000000), wk =   0.2500000
        k(    5) = (  -0.5000000   0.0000000   0.0000000), wk =   0.2500000
        k(    6) = (   0.0000000  -0.5000000   0.0000000), wk =   0.2500000
        k(    7) = (  -0.5000000   0.0000000   0.5000000), wk =   0.2500000
        k(    8) = (  -0.5000000   0.5000000   0.0000000), wk =   0.2500000

     Dense  grid:   246825 G-vectors     FFT dimensions: (  80,  80,  80)

     Estimated max dynamical RAM per process >     217.05 MB

     Estimated total dynamical RAM >       6.61 GB

     Check: negative core charge=   -0.000025

     Initial potential from superposition of free atoms

     starting charge     435.9427, renormalised to     436.0000
     Starting wfcs are  376 randomized atomic wfcs
     Checking if some PAW data can be deallocated... 

     total cpu time spent up to now is        3.9 secs

     Self-consistent Calculation

     iteration #  1     ecut=    60.00 Ry     beta= 0.20
     Davidson diagonalization with overlap
     ethr =  1.00E-02,  avg # of iterations =  2.0

     total cpu time spent up to now is       11.2 secs

     total energy              =   -5059.82857912 Ry
     estimated scf accuracy    <      19.61941227 Ry

     iteration #  2     ecut=    60.00 Ry     beta= 0.20
     Davidson diagonalization with overlap
     ethr =  4.50E-03,  avg # of iterations =  1.0

     total cpu time spent up to now is       17.1 secs

     total energy              =   -5055.00348623 Ry
     estimated scf accuracy    <      11.18082475 Ry

     iteration #  3     ecut=    60.00 Ry     beta= 0.20
     Davidson diagonalization with overlap
     ethr =  2.56E-03,  avg # of iterations =  3.2

     total cpu time spent up to now is       25.5 secs

     total energy              =   -5057.71764083 Ry
     estimated scf accuracy    <       0.74753677 Ry

     iteration #  4     ecut=    60.00 Ry     beta= 0.20
     Davidson diagonalization with overlap
     ethr =  1.71E-04,  avg # of iterations =  5.1

     total cpu time spent up to now is       34.0 secs

     total energy              =   -5057.78604513 Ry
     estimated scf accuracy    <       0.34807634 Ry

     iteration #  5     ecut=    60.00 Ry     beta= 0.20
     Davidson diagonalization with overlap
     ethr =  7.98E-05,  avg # of iterations =  2.2

     total cpu time spent up to now is       40.9 secs

     total energy              =   -5057.76634378 Ry
     estimated scf accuracy    <       0.18100409 Ry

     iteration #  6     ecut=    60.00 Ry     beta= 0.20
     Davidson diagonalization with overlap
     ethr =  4.15E-05,  avg # of iterations =  2.0

     total cpu time spent up to now is       48.6 secs

     total energy              =   -5057.77461247 Ry
     estimated scf accuracy    <       0.07031071 Ry

     iteration #  7     ecut=    60.00 Ry     beta= 0.20
     Davidson diagonalization with overlap
     ethr =  1.61E-05,  avg # of iterations =  4.4

     total cpu time spent up to now is       56.3 secs

     total energy              =   -5057.77342881 Ry
     estimated scf accuracy    <       0.01754019 Ry

     iteration #  8     ecut=    60.00 Ry     beta= 0.20
     Davidson diagonalization with overlap
     c_bands:  2 eigenvalues not converged
     ethr =  4.02E-06,  avg # of iterations = 21.5

     total cpu time spent up to now is       76.5 secs

     total energy              =   -5057.77755558 Ry
     estimated scf accuracy    <       0.00286347 Ry

     iteration #  9     ecut=    60.00 Ry     beta= 0.20
     Davidson diagonalization with overlap
     ethr =  6.57E-07,  avg # of iterations =  6.0

     total cpu time spent up to now is       85.3 secs

     total energy              =   -5057.77756986 Ry
     estimated scf accuracy    <       0.00101989 Ry

     iteration # 10     ecut=    60.00 Ry     beta= 0.20
     Davidson diagonalization with overlap
     ethr =  2.34E-07,  avg # of iterations =  2.4

     total cpu time spent up to now is       92.3 secs

     total energy              =   -5057.77752896 Ry
     estimated scf accuracy    <       0.00036418 Ry

     iteration # 11     ecut=    60.00 Ry     beta= 0.20
     Davidson diagonalization with overlap
     ethr =  8.35E-08,  avg # of iterations =  8.2

     total cpu time spent up to now is      102.9 secs

     total energy              =   -5057.77758509 Ry
     estimated scf accuracy    <       0.00022685 Ry

     iteration # 12     ecut=    60.00 Ry     beta= 0.20
     Davidson diagonalization with overlap
     ethr =  5.20E-08,  avg # of iterations =  2.0

     total cpu time spent up to now is      109.5 secs

     total energy              =   -5057.77758166 Ry
     estimated scf accuracy    <       0.00006446 Ry

     iteration # 13     ecut=    60.00 Ry     beta= 0.20
     Davidson diagonalization with overlap
     ethr =  1.48E-08,  avg # of iterations =  5.8

     total cpu time spent up to now is      118.8 secs

     total energy              =   -5057.77759051 Ry
     estimated scf accuracy    <       0.00001728 Ry

     iteration # 14     ecut=    60.00 Ry     beta= 0.20
     Davidson diagonalization with overlap
     ethr =  3.96E-09,  avg # of iterations =  5.1

     total cpu time spent up to now is      127.1 secs

     total energy              =   -5057.77759254 Ry
     estimated scf accuracy    <       0.00000390 Ry

     iteration # 15     ecut=    60.00 Ry     beta= 0.20
     Davidson diagonalization with overlap
     ethr =  8.94E-10,  avg # of iterations =  5.6

     total cpu time spent up to now is      136.0 secs

     total energy              =   -5057.77759269 Ry
     estimated scf accuracy    <       0.00000283 Ry

     iteration # 16     ecut=    60.00 Ry     beta= 0.20
     Davidson diagonalization with overlap
     ethr =  6.50E-10,  avg # of iterations =  2.0

     total cpu time spent up to now is      142.5 secs

     total energy              =   -5057.77759265 Ry
     estimated scf accuracy    <       0.00000070 Ry

     iteration # 17     ecut=    60.00 Ry     beta= 0.20
     Davidson diagonalization with overlap
     ethr =  1.61E-10,  avg # of iterations =  4.9

     total cpu time spent up to now is      151.1 secs

     total energy              =   -5057.77759277 Ry
     estimated scf accuracy    <       0.00000014 Ry

     iteration # 18     ecut=    60.00 Ry     beta= 0.20
     Davidson diagonalization with overlap
     ethr =  3.26E-11,  avg # of iterations =  5.2

     total cpu time spent up to now is      159.4 secs

     total energy              =   -5057.77759277 Ry
     estimated scf accuracy    <       0.00000006 Ry

     iteration # 19     ecut=    60.00 Ry     beta= 0.20
     Davidson diagonalization with overlap
     ethr =  1.28E-11,  avg # of iterations =  5.9

     total cpu time spent up to now is      167.2 secs

     total energy              =   -5057.77759277 Ry
     estimated scf accuracy    <       0.00000004 Ry

     iteration # 20     ecut=    60.00 Ry     beta= 0.20
     Davidson diagonalization with overlap
     ethr =  8.09E-12,  avg # of iterations =  2.8

     total cpu time spent up to now is      174.4 secs

     total energy              =   -5057.77759277 Ry
     estimated scf accuracy    <       0.00000001 Ry

     iteration # 21     ecut=    60.00 Ry     beta= 0.20
     Davidson diagonalization with overlap
     ethr =  2.35E-12,  avg # of iterations =  6.0

     total cpu time spent up to now is      181.9 secs

     End of self-consistent calculation

          k = 0.0000 0.0000 0.0000 ( 31031 PWs)   bands (ev):

   -42.4296 -42.3772 -42.2207 -42.1834 -42.1594 -42.1047 -42.0713 -42.0570
   -42.0328 -42.0239 -42.0114 -41.9851 -41.9716 -41.9446 -41.9299 -41.9131
   -41.8970 -41.8697 -41.8044 -41.7953 -18.8520 -18.8197 -18.8074 -18.7926
   -18.7597 -18.7348 -18.7028 -18.6796 -18.6357 -18.6207 -18.6132 -18.6004
   -18.5883 -18.5814 -18.5663 -18.5451 -18.5426 -18.5239 -18.5124 -18.5073
   -18.5017 -18.4974 -18.4831 -18.4712 -18.4690 -18.4523 -18.4376 -18.4226
   -18.4199 -18.3897 -18.3680 -18.3626 -18.3384 -18.3273 -18.3184 -18.2992
   -18.2959 -18.2789 -18.2708 -18.2552 -18.2420 -18.2364 -18.2260 -18.1937
   -18.1857 -18.1788 -18.1689 -18.1592 -18.1508 -18.1433 -18.1286 -18.1183
   -18.0978 -18.0906 -18.0829 -18.0666 -18.0406 -18.0332 -17.9947 -17.9828
    -2.3996  -1.2770  -1.2005  -1.1218  -0.9239  -0.8466  -0.7707  -0.2759
    -0.1701  -0.1580  -0.1360  -0.0788  -0.0495   0.0058   0.0404   0.0863
     0.1162   0.1846   0.2500   0.3324   0.3573   0.4221   0.4501   0.4785
     0.5432   0.5558   0.6150   0.6329   0.6981   0.8007   0.8739   0.9290
     6.0664   6.6534   6.9292   7.1716   7.6458   7.8816   7.9297   8.0234
     8.1093   8.1351   8.2012   8.3150   8.3824   8.4223   8.4334   8.5211
     8.6054   8.6868   8.7772   8.8654   8.8996   8.9474   9.0842   9.1778
     9.1890   9.2629   9.3815   9.4136   9.4413   9.4841   9.5184   9.5737
     9.6314   9.7197   9.8393   9.8949   9.9374   9.9486   9.9738  10.0569
    10.1007  10.1312  10.1734  10.1823  10.2065  10.2452  10.2761  10.3052
    10.3487  10.4526  10.5484  10.6129  10.6235  10.6448  10.6647  10.7526
    10.8767  10.9178  11.0123  11.0554  11.1095  11.1562  11.2262  11.2388
    11.3552  11.3976  11.4548  11.4647  11.5049  11.5443  11.7102  11.7421
    11.7964  11.8097  11.8811  11.9960  12.0836  12.1978  12.2414  12.2641
    12.2984  12.3199  12.3668  12.4008  12.4520  12.4743  12.5035  12.5356
    12.6005  12.6136  12.7176  12.7363  12.8402  13.1160  13.1954  13.3309
    13.7030  13.7462  13.7636  14.2053  14.3432  14.4389  14.5550  14.7266
    14.8206  15.6058  15.7890  15.9270  16.4528  16.6012  16.6370  16.6885
    16.6984  16.7258  16.7471  16.7515  16.8264  16.8665  16.8821  16.9027
    16.9313  16.9702  17.0286  17.0484  17.1280  17.1607  17.1890  17.2273
    17.2309  17.2578  17.2867  17.3015  17.3213  17.3536  17.3743  17.4039
    17.4179  17.4564  17.4659  17.5032  17.5231  17.5310  17.5467  17.5720
    17.6017  17.6124  17.6584  17.6701  17.6989  17.7064

          k = 0.0000 0.0000-0.5000 ( 30814 PWs)   bands (ev):

   -42.4296 -42.3771 -42.2207 -42.1834 -42.1591 -42.1048 -42.0714 -42.0568
   -42.0329 -42.0242 -42.0114 -41.9862 -41.9712 -41.9453 -41.9263 -41.9130
   -41.8987 -41.8698 -41.8044 -41.7953 -18.8420 -18.8016 -18.7985 -18.7678
   -18.7576 -18.7471 -18.6965 -18.6726 -18.6625 -18.6505 -18.6206 -18.6153
   -18.5970 -18.5832 -18.5786 -18.5601 -18.5421 -18.5304 -18.5240 -18.5184
   -18.5117 -18.5008 -18.4842 -18.4789 -18.4754 -18.4504 -18.4235 -18.4142
   -18.3925 -18.3781 -18.3634 -18.3504 -18.3369 -18.3155 -18.3096 -18.2959
   -18.2844 -18.2651 -18.2551 -18.2515 -18.2339 -18.2251 -18.2163 -18.1991
   -18.1910 -18.1810 -18.1759 -18.1677 -18.1532 -18.1454 -18.1296 -18.1249
   -18.1014 -18.0982 -18.0910 -18.0692 -18.0500 -18.0319 -17.9943 -17.9824
    -2.1045  -1.9126  -0.9500  -0.8024  -0.7743  -0.7402  -0.6978  -0.6371
    -0.4787  -0.3482  -0.1992  -0.1958   0.0030   0.1178   0.1449   0.1829
     0.1972   0.2505   0.2736   0.3204   0.3688   0.4010   0.4280   0.4685
     0.5561   0.6014   0.6164   0.6718   0.7020   0.7444   0.7819   0.8463
     6.5727   6.7335   7.1223   7.2969   7.4476   7.5679   7.6899   7.8120
     8.0120   8.1244   8.1751   8.2761   8.3661   8.3858   8.5728   8.6425
     8.6678   8.7181   8.7659   8.8414   8.9102   8.9659   9.0140   9.0713
     9.1405   9.1926   9.2433   9.2839   9.3739   9.3872   9.4282   9.4808
     9.5189   9.5784   9.8942   9.9776  10.0688  10.1596  10.1831  10.2526
    10.2904  10.3437  10.3883  10.4116  10.4408  10.4574  10.5210  10.5546
    10.5836  10.6347  10.6837  10.6956  10.7484  10.7910  10.8529  10.9010
    11.0453  11.0838  11.1437  11.1694  11.1938  11.2174  11.2831  11.2924
    11.3277  11.3740  11.4024  11.4476  11.4687  11.4851  11.5267  11.5659
    11.5852  11.6825  11.7106  11.7407  11.7574  11.7950  11.8545  11.9129
    11.9631  12.0033  12.0519  12.1465  12.1637  12.1747  12.2553  12.3607
    12.3870  12.4043  12.4603  12.5740  13.0675  13.1348  13.1551  13.1927
    13.5049  13.7272  14.6791  14.7375  14.8037  14.9344  15.1056  15.3126
    15.3991  15.5294  15.5594  15.7039  15.7309  15.9058  16.0200  16.2633
    16.4108  16.5374  16.6542  16.6865  16.7415  16.7651  16.8451  16.8845
    16.9497  16.9826  16.9959  17.0140  17.0458  17.1130  17.1245  17.1421
    17.1831  17.1916  17.2168  17.2453  17.2666  17.3078  17.3300  17.3581
    17.3771  17.4187  17.4473  17.4942  17.5086  17.5340  17.6057  17.6109
    17.6440  17.6929  17.7372  17.7685  17.7831  17.8344

          k = 0.0000-0.5000-0.5000 ( 30888 PWs)   bands (ev):

   -42.4296 -42.3771 -42.2207 -42.1833 -42.1590 -42.1042 -42.0729 -42.0570
   -42.0329 -42.0240 -42.0107 -41.9862 -41.9715 -41.9449 -41.9261 -41.9132
   -41.8987 -41.8700 -41.8044 -41.7953 -18.8419 -18.8047 -18.7919 -18.7662
   -18.7494 -18.7441 -18.7030 -18.6888 -18.6638 -18.6331 -18.6256 -18.6144
   -18.5967 -18.5903 -18.5654 -18.5606 -18.5440 -18.5333 -18.5240 -18.5212
   -18.5086 -18.4956 -18.4882 -18.4761 -18.4680 -18.4573 -18.4437 -18.4125
   -18.4015 -18.3899 -18.3576 -18.3428 -18.3345 -18.3169 -18.3031 -18.2973
   -18.2729 -18.2641 -18.2591 -18.2427 -18.2366 -18.2242 -18.2146 -18.2016
   -18.1940 -18.1832 -18.1822 -18.1708 -18.1561 -18.1435 -18.1278 -18.1229
   -18.1071 -18.0967 -18.0859 -18.0665 -18.0535 -18.0263 -17.9951 -17.9828
    -1.9005  -1.6887  -1.4645  -1.3107  -0.6850  -0.5429  -0.5317  -0.3717
    -0.2775  -0.2682  -0.2297  -0.1840  -0.0794  -0.0204   0.0149   0.0870
     0.1379   0.1700   0.2193   0.2930   0.4066   0.4657   0.4750   0.5455
     0.5565   0.5703   0.6575   0.6877   0.7090   0.7288   0.7507   0.8075
     6.8731   7.0148   7.1543   7.2636   7.3191   7.5838   7.6024   7.8931
     7.9233   8.1150   8.2191   8.2564   8.3285   8.3968   8.4295   8.4822
     8.6420   8.6634   8.7375   8.7424   8.7882   8.8245   8.9920   9.0288
     9.0779   9.1775   9.2679   9.3655   9.4518   9.5232   9.6204   9.6410
     9.8721   9.9378   9.9662  10.0611  10.1366  10.1770  10.2515  10.3193
    10.3520  10.3958  10.4348  10.4683  10.5167  10.5298  10.5636  10.5828
    10.6730  10.7050  10.7342  10.7833  10.8318  10.8750  10.8928  10.9749
    11.0023  11.0276  11.0457  11.1097  11.1493  11.1865  11.2283  11.2514
    11.2598  11.3101  11.3678  11.3771  11.3868  11.4179  11.4308  11.4494
    11.4726  11.5596  11.5667  11.6045  11.6610  11.6776  11.7318  11.7508
    11.8181  11.8533  11.9427  12.0562  12.1267  12.1454  12.2647  12.3772
    12.4003  12.4351  12.4665  12.5229  12.5520  12.5962  12.7759  13.0766
    14.5667  14.7066  14.8233  14.9748  15.0338  15.0871  15.2634  15.3838
    15.4419  15.4613  15.5056  15.6571  15.8259  15.8661  16.0251  16.0419
    16.0801  16.1410  16.1833  16.2775  16.3250  16.3882  16.4263  16.5408
    16.6689  16.7250  16.8110  16.9171  16.9433  16.9833  16.9973  17.0397
    17.1201  17.1477  17.1643  17.1769  17.2422  17.2825  17.3067  17.4315
    17.4690  17.4829  17.5651  17.5911  17.6176  17.6782  17.7373  17.7812
    17.7960  17.8394  17.8533  17.8664  17.8717  17.9128

          k =-0.5000-0.5000-0.5000 ( 30688 PWs)   bands (ev):

   -42.4296 -42.3771 -42.2206 -42.1832 -42.1590 -42.1042 -42.0721 -42.0569
   -42.0355 -42.0240 -42.0100 -41.9848 -41.9718 -41.9442 -41.9264 -41.9136
   -41.8986 -41.8700 -41.8044 -41.7953 -18.8466 -18.8164 -18.7908 -18.7668
   -18.7539 -18.7465 -18.6950 -18.6635 -18.6503 -18.6331 -18.6250 -18.6121
   -18.6017 -18.5726 -18.5683 -18.5496 -18.5392 -18.5371 -18.5265 -18.5189
   -18.5084 -18.5013 -18.4943 -18.4798 -18.4665 -18.4642 -18.4461 -18.4357
   -18.4151 -18.4015 -18.3751 -18.3397 -18.3252 -18.3096 -18.2981 -18.2946
   -18.2676 -18.2582 -18.2508 -18.2433 -18.2339 -18.2234 -18.2202 -18.2097
   -18.1995 -18.1885 -18.1799 -18.1721 -18.1615 -18.1448 -18.1237 -18.1110
   -18.1077 -18.0964 -18.0836 -18.0688 -18.0450 -18.0289 -17.9945 -17.9831
    -1.7588  -1.4521  -1.2915  -1.2406  -1.1208  -0.9803  -0.8186  -0.7324
    -0.1436  -0.0864  -0.0037   0.0288   0.0390   0.0551   0.0771   0.1018
     0.1844   0.2057   0.2646   0.3045   0.3691   0.3946   0.4500   0.4858
     0.5388   0.5575   0.5895   0.6325   0.6538   0.6987   0.7968   0.8458
     7.0391   7.2068   7.2602   7.3689   7.4879   7.5495   7.7472   7.8344
     7.9140   8.0055   8.0702   8.2398   8.2618   8.3057   8.4337   8.5316
     8.5684   8.6768   8.7168   8.8613   8.9760   8.9900   9.0239   9.1078
     9.3187   9.3605   9.4926   9.5253   9.5821   9.7148   9.7394   9.7700
     9.8497   9.8988   9.9346   9.9639  10.0265  10.0370  10.0772  10.1098
    10.1505  10.1789  10.2123  10.2464  10.2843  10.3323  10.3708  10.4048
    10.4402  10.4997  10.5287  10.5778  10.6359  10.6670  10.7273  10.7991
    10.9099  10.9852  10.9947  11.0372  11.0514  11.0830  11.1318  11.2021
    11.2094  11.2282  11.2630  11.3503  11.3597  11.3822  11.4460  11.5344
    11.5635  11.6007  11.6332  11.7386  11.7871  11.8468  11.9244  11.9692
    12.0218  12.0724  12.1095  12.1635  12.2596  12.3133  12.3811  12.3991
    12.4557  12.4958  12.5377  12.5859  12.6343  12.7216  12.8833  12.9995
    14.9329  14.9818  15.0504  15.1140  15.1385  15.1496  15.2951  15.4160
    15.4368  15.5197  15.5900  15.6164  15.6950  15.7293  15.8481  15.9281
    15.9429  15.9816  16.0873  16.1062  16.1211  16.1792  16.2899  16.4053
    16.4177  16.4615  16.5266  16.6028  16.6818  16.7393  16.8273  16.8456
    16.9376  16.9538  16.9709  17.0277  17.0481  17.3119  17.3289  17.5576
    17.6030  17.6885  17.7456  17.8049  17.8326  17.8472  17.8649  17.9072
    17.9113  17.9402  17.9672  17.9815  17.9977  18.0061

          k =-0.5000 0.0000 0.0000 ( 30814 PWs)   bands (ev):

   -42.4296 -42.3771 -42.2207 -42.1834 -42.1593 -42.1046 -42.0705 -42.0570
   -42.0354 -42.0236 -42.0107 -41.9841 -41.9718 -41.9442 -41.9291 -41.9139
   -41.8972 -41.8697 -41.8044 -41.7952 -18.8420 -18.7997 -18.7955 -18.7812
   -18.7578 -18.7324 -18.7173 -18.6959 -18.6615 -18.6341 -18.6306 -18.6156
   -18.5914 -18.5798 -18.5701 -18.5431 -18.5375 -18.5255 -18.5114 -18.5074
   -18.5058 -18.4969 -18.4845 -18.4734 -18.4685 -18.4593 -18.4367 -18.4232
   -18.4136 -18.3751 -18.3609 -18.3571 -18.3388 -18.3203 -18.3046 -18.2932
   -18.2767 -18.2706 -18.2600 -18.2540 -18.2411 -18.2280 -18.2203 -18.2068
   -18.2047 -18.1766 -18.1667 -18.1605 -18.1568 -18.1386 -18.1351 -18.1206
   -18.1027 -18.0968 -18.0832 -18.0651 -18.0460 -18.0342 -17.9964 -17.9819
    -2.1679  -1.8047  -0.9994  -0.8725  -0.7669  -0.7447  -0.6613  -0.5455
    -0.4423  -0.3736  -0.2868  -0.1545  -0.0546   0.0965   0.1335   0.1483
     0.2092   0.2560   0.2722   0.2921   0.3216   0.3867   0.4145   0.4861
     0.5285   0.5736   0.5881   0.6398   0.7187   0.8277   0.8680   0.9761
     6.4567   6.9437   7.1618   7.3603   7.5575   7.7212   7.8529   7.9603
     8.0778   8.1185   8.1402   8.1920   8.3114   8.3553   8.4210   8.5565
     8.6203   8.6651   8.7220   8.7864   8.9041   8.9268   8.9732   8.9944
     9.0660   9.0971   9.1401   9.2618   9.3020   9.3569   9.4033   9.5135
     9.5174   9.7779   9.9228   9.9777  10.0599  10.1136  10.1642  10.1709
    10.2178  10.2592  10.2918  10.2983  10.3547  10.3742  10.4246  10.4970
    10.5682  10.5935  10.6099  10.6426  10.6685  10.7898  10.8428  10.9220
    10.9637  11.0070  11.0380  11.1390  11.1957  11.2283  11.2678  11.2998
    11.3413  11.3589  11.3913  11.4354  11.4556  11.5261  11.5796  11.6083
    11.6787  11.7077  11.7389  11.7796  11.8146  11.8450  11.9237  11.9422
    12.0771  12.1082  12.2010  12.3283  12.3388  12.3547  12.3732  12.4017
    12.4420  12.4632  12.5133  12.7336  13.0830  13.0948  13.2074  13.2289
    13.2585  14.0660  14.4097  14.5123  14.9392  15.0966  15.1448  15.1847
    15.2771  15.4475  15.4893  15.7619  15.7883  16.1083  16.3048  16.3837
    16.5211  16.6095  16.6550  16.6971  16.7792  16.8368  16.8465  16.8615
    16.9097  16.9395  16.9553  16.9672  16.9899  17.0800  17.0864  17.1701
    17.1784  17.1987  17.2137  17.2624  17.2732  17.3082  17.3425  17.3790
    17.4016  17.4293  17.4867  17.5107  17.5415  17.5484  17.5979  17.6045
    17.6304  17.6442  17.7075  17.7682  17.7905  17.8404

          k = 0.0000-0.5000 0.0000 ( 30814 PWs)   bands (ev):

   -42.4296 -42.3771 -42.2207 -42.1833 -42.1590 -42.1049 -42.0725 -42.0563
   -42.0329 -42.0239 -42.0108 -41.9852 -41.9718 -41.9440 -41.9296 -41.9133
   -41.8971 -41.8699 -41.8043 -41.7953 -18.8472 -18.8173 -18.7994 -18.7848
   -18.7561 -18.7498 -18.6867 -18.6656 -18.6342 -18.6185 -18.6123 -18.5952
   -18.5948 -18.5834 -18.5765 -18.5671 -18.5494 -18.5468 -18.5392 -18.5347
   -18.5050 -18.5007 -18.4956 -18.4758 -18.4599 -18.4434 -18.4294 -18.4201
   -18.3956 -18.3710 -18.3637 -18.3449 -18.3442 -18.3215 -18.3117 -18.3030
   -18.2849 -18.2758 -18.2691 -18.2539 -18.2416 -18.2366 -18.2213 -18.1849
   -18.1829 -18.1810 -18.1687 -18.1594 -18.1528 -18.1449 -18.1435 -18.1155
   -18.1021 -18.0931 -18.0823 -18.0681 -18.0409 -18.0388 -17.9948 -17.9839
    -2.1638  -1.7724  -1.1377  -1.0399  -0.6792  -0.6332  -0.5387  -0.4797
    -0.4589  -0.3677  -0.2571  -0.1836  -0.0998   0.0578   0.1330   0.1737
     0.1961   0.2267   0.3001   0.3295   0.3471   0.3965   0.4551   0.4910
     0.5180   0.5576   0.6123   0.6897   0.7139   0.7467   0.8418   0.8651
     6.5423   6.8771   7.0645   7.2961   7.3845   7.5368   7.7665   7.9315
     8.0033   8.0889   8.1072   8.1306   8.2709   8.3309   8.4794   8.5902
     8.6017   8.7313   8.8218   8.8560   8.8763   9.0131   9.0655   9.1160
     9.1782   9.2391   9.2683   9.3197   9.4023   9.4035   9.5106   9.5279
     9.7069   9.7782   9.8396   9.9772  10.0991  10.1311  10.1559  10.2043
    10.2096  10.2146  10.2454  10.3273  10.3959  10.4487  10.5126  10.5728
    10.5920  10.6188  10.6863  10.7685  10.8282  10.8863  10.9554  11.0087
    11.0257  11.1119  11.1216  11.1588  11.1876  11.2175  11.2685  11.2883
    11.3451  11.3649  11.4151  11.4292  11.5002  11.5020  11.5321  11.5639
    11.5900  11.6263  11.6742  11.6909  11.7096  11.7527  11.7997  11.8910
    11.9704  12.0316  12.0765  12.0833  12.1375  12.2104  12.2248  12.3158
    12.3815  12.4201  12.4914  12.5628  13.1082  13.1607  13.1725  13.1910
    13.2250  14.1126  14.4503  14.4755  15.0287  15.1360  15.2412  15.2557
    15.2991  15.5708  15.5870  15.6973  15.8144  15.9162  15.9888  16.2340
    16.3980  16.5382  16.6216  16.6715  16.7125  16.7430  16.7511  16.7988
    16.8362  16.8642  16.9436  16.9733  17.0004  17.0317  17.0766  17.1006
    17.1209  17.1499  17.1720  17.2933  17.3401  17.3473  17.4128  17.4166
    17.4359  17.4946  17.5369  17.5569  17.5917  17.5994  17.6255  17.6395
    17.7029  17.7391  17.7521  17.7673  17.7965  17.8210

          k =-0.5000 0.0000 0.5000 ( 30888 PWs)   bands (ev):

   -42.4296 -42.3771 -42.2207 -42.1833 -42.1592 -42.1048 -42.0706 -42.0568
   -42.0354 -42.0243 -42.0106 -41.9849 -41.9715 -41.9447 -41.9266 -41.9134
   -41.8986 -41.8699 -41.8044 -41.7953 -18.8473 -18.8082 -18.7963 -18.7718
   -18.7553 -18.7477 -18.6865 -18.6574 -18.6502 -18.6389 -18.6244 -18.6077
   -18.5983 -18.5862 -18.5707 -18.5611 -18.5503 -18.5489 -18.5263 -18.5167
   -18.5126 -18.5010 -18.4936 -18.4814 -18.4773 -18.4563 -18.4302 -18.4246
   -18.3901 -18.3870 -18.3645 -18.3500 -18.3275 -18.3119 -18.3053 -18.2959
   -18.2803 -18.2624 -18.2495 -18.2423 -18.2364 -18.2191 -18.2150 -18.2009
   -18.1931 -18.1901 -18.1814 -18.1713 -18.1629 -18.1434 -18.1310 -18.1130
   -18.1040 -18.0978 -18.0880 -18.0708 -18.0422 -18.0343 -17.9935 -17.9838
    -1.9359  -1.6555  -1.4408  -1.3203  -0.7348  -0.5305  -0.3752  -0.3540
    -0.3095  -0.2585  -0.2002  -0.1754  -0.1222  -0.0770  -0.0488   0.0337
     0.0551   0.1374   0.2735   0.3102   0.3372   0.3730   0.4704   0.5105
     0.5628   0.5977   0.6161   0.6592   0.7621   0.8458   0.8513   0.8968
     6.6512   6.9274   7.3191   7.5109   7.6566   7.7646   7.8590   7.9005
     7.9297   8.0545   8.1423   8.1812   8.3123   8.4241   8.4353   8.4890
     8.6094   8.6192   8.6940   8.7266   8.8349   8.8634   8.9882   9.0135
     9.0396   9.0718   9.1130   9.2717   9.3279   9.4337   9.5107   9.5669
     9.6869   9.7647   9.9001  10.0309  10.0654  10.1006  10.1227  10.2801
    10.3118  10.3210  10.3713  10.4236  10.4439  10.4778  10.4886  10.5763
    10.5932  10.6082  10.6555  10.7198  10.7388  10.8438  10.9162  10.9614
    10.9878  10.9924  11.0389  11.0714  11.1747  11.1882  11.2356  11.2469
    11.2646  11.3366  11.3422  11.3692  11.3816  11.4404  11.4684  11.5211
    11.5853  11.6239  11.6368  11.6694  11.7345  11.7979  11.8024  11.9763
    12.0289  12.0713  12.0949  12.1441  12.1765  12.2702  12.3443  12.3888
    12.4159  12.4494  12.5833  12.6063  12.6574  12.7097  12.7987  13.0201
    14.4574  14.6583  14.7467  14.8831  15.0316  15.0936  15.1255  15.2224
    15.5099  15.5712  15.6782  15.7347  15.7895  15.9021  15.9704  16.0462
    16.0974  16.1871  16.2138  16.3131  16.3826  16.4293  16.5397  16.6673
    16.7604  16.7831  16.8222  16.8340  16.9405  16.9776  17.0218  17.0637
    17.1137  17.1515  17.1605  17.1953  17.2449  17.3313  17.3486  17.3857
    17.4250  17.4599  17.5390  17.5811  17.6830  17.7307  17.7591  17.7919
    17.8080  17.8307  17.8561  17.8845  17.9226  17.9355

          k =-0.5000 0.5000 0.0000 ( 30888 PWs)   bands (ev):

   -42.4296 -42.3771 -42.2207 -42.1833 -42.1590 -42.1048 -42.0719 -42.0562
   -42.0355 -42.0236 -42.0101 -41.9842 -41.9721 -41.9437 -41.9288 -41.9141
   -41.8973 -41.8698 -41.8044 -41.7953 -18.8411 -18.8025 -18.7954 -18.7657
   -18.7481 -18.7445 -18.6969 -18.6690 -18.6611 -18.6543 -18.6317 -18.6192
   -18.5910 -18.5876 -18.5856 -18.5584 -18.5463 -18.5407 -18.5328 -18.5211
   -18.5090 -18.5061 -18.4731 -18.4695 -18.4689 -18.4449 -18.4367 -18.4215
   -18.4057 -18.3607 -18.3592 -18.3456 -18.3265 -18.3232 -18.3019 -18.2911
   -18.2752 -18.2722 -18.2566 -18.2479 -18.2465 -18.2254 -18.2222 -18.2034
   -18.1876 -18.1765 -18.1702 -18.1640 -18.1588 -18.1525 -18.1347 -18.1199
   -18.1023 -18.1000 -18.0841 -18.0670 -18.0503 -18.0350 -17.9971 -17.9803
    -1.9555  -1.5930  -1.5469  -1.1774  -0.6978  -0.5959  -0.4735  -0.3954
    -0.3281  -0.3063  -0.2006  -0.1411  -0.1297  -0.0771  -0.0080   0.0645
     0.1260   0.1783   0.2074   0.2853   0.3420   0.3528   0.4319   0.5605
     0.5741   0.6186   0.6443   0.7016   0.7335   0.7705   0.8713   0.9214
     6.7305   7.0713   7.1469   7.3546   7.5678   7.8148   7.8825   7.9571
     8.1230   8.1251   8.1730   8.2251   8.2532   8.3414   8.4176   8.4818
     8.5233   8.5675   8.6134   8.6840   8.7366   8.8315   8.9030   8.9579
     8.9859   8.9979   9.0669   9.2976   9.4354   9.5211   9.6020   9.6232
     9.8004   9.8620   9.9607   9.9901  10.0174  10.1273  10.1847  10.2682
    10.3022  10.3399  10.4071  10.4353  10.4941  10.5200  10.5341  10.6017
    10.6257  10.6878  10.6974  10.7222  10.7815  10.8031  10.8891  10.9199
    10.9670  11.0278  11.0564  11.0807  11.1224  11.1545  11.1828  11.2550
    11.2938  11.3100  11.3715  11.3916  11.4397  11.4886  11.5078  11.5275
    11.5636  11.6044  11.6352  11.6696  11.7039  11.7848  11.8075  11.8605
    11.9396  12.0002  12.0730  12.1636  12.2497  12.2812  12.3212  12.3817
    12.4200  12.4650  12.5040  12.5074  12.5764  12.6857  12.7670  13.0023
    14.4419  14.6006  14.7799  14.9250  15.0210  15.1947  15.2629  15.3448
    15.3532  15.4677  15.6374  15.7052  15.7510  15.9020  15.9798  16.0295
    16.0960  16.1442  16.1831  16.3355  16.4615  16.5367  16.6288  16.7304
    16.7991  16.8272  16.8759  16.9004  16.9435  16.9817  17.0282  17.0779
    17.1597  17.2028  17.2168  17.2580  17.2831  17.3212  17.3633  17.4068
    17.4200  17.4459  17.4897  17.5396  17.5863  17.6071  17.6516  17.6733
    17.7627  17.8076  17.8586  17.8690  17.9207  17.9311

     the Fermi energy is    15.5553 ev

!    total energy              =   -5057.77759277 Ry
     total all-electron energy =    -43491.510697 Ry
     estimated scf accuracy    <          3.3E-09 Ry
     smearing contrib. (-TS)   =      -0.00342447 Ry
     internal energy E=F+TS    =   -5057.77416830 Ry

     The total energy is F=E-TS. E is the sum of the following terms:
     one-electron contribution =    -881.30096113 Ry
     hartree contribution      =     721.59093845 Ry
     xc contribution           =    -592.61953018 Ry
     ewald contribution        =   -2327.73857225 Ry
     one-center paw contrib.   =   -1977.70604319 Ry

     convergence has been achieved in  21 iterations

     Forces acting on atoms (cartesian axes, Ry/au):

     atom    1 type  1   force =    -0.00019187   -0.00010243   -0.00001974
     atom    2 type  2   force =    -0.00054922   -0.00036699   -0.00072279
     atom    3 type  3   force =     0.00022304   -0.00028733    0.00047100
     atom    4 type  2   force =     0.00019594    0.00001891    0.00022315
     atom    5 type  3   force =     0.00067112    0.00089138    0.00011435
     atom    6 type  2   force =    -0.00074861    0.00025563   -0.00039713
     atom    7 type  3   force =     0.00000283   -0.00003724    0.00067532
     atom    8 type  2   force =    -0.00040787    0.00024708   -0.00021451
     atom    9 type  3   force =     0.00025991    0.00005945    0.00051864
     atom   10 type  2   force =     0.00000778   -0.00049069    0.00025509
     atom   11 type  3   force =    -0.00055005    0.00002518   -0.00102630
     atom   12 type  2   force =     0.00000352    0.00021560    0.00006749
     atom   13 type  1   force =    -0.00035337    0.00044193   -0.00046155
     atom   14 type  2   force =     0.00050584    0.00000455    0.00061420
     atom   15 type  3   force =    -0.00037931   -0.00006194   -0.00029387
     atom   16 type  2   force =     0.00026268    0.00085813   -0.00041238
     atom   17 type  1   force =     0.00033781    0.00037702    0.00006210
     atom   18 type  2   force =     0.00005052   -0.00046016    0.00016464
     atom   19 type  3   force =     0.00024782    0.00099889   -0.00003484
     atom   20 type  2   force =     0.00099452   -0.00029530    0.00113501
     atom   21 type  3   force =     0.00104670   -0.00090994    0.00061396
     atom   22 type  2   force =    -0.00038299    0.00057902    0.00045034
     atom   23 type  3   force =     0.00024437   -0.00070248   -0.00026781
     atom   24 type  2   force =     0.00001252    0.00008840   -0.00014816
     atom   25 type  1   force =     0.00097337    0.00033633   -0.00047285
     atom   26 type  2   force =     0.00018246    0.00077866   -0.00000441
     atom   27 type  1   force =     0.00047625    0.00002431   -0.00040660
     atom   28 type  2   force =     0.00077010    0.00027744   -0.00056048
     atom   29 type  3   force =    -0.00021236   -0.00047651   -0.00009258
     atom   30 type  2   force =    -0.00075938    0.00007763   -0.00058239
     atom   31 type  1   force =     0.00061880    0.00022940    0.00047768
     atom   32 type  2   force =     0.00117216   -0.00052384   -0.00023077
     atom   33 type  3   force =    -0.00059941   -0.00000874    0.00030282
     atom   34 type  2   force =     0.00027319   -0.00035343   -0.00039967
     atom   35 type  3   force =    -0.00005980   -0.00076886    0.00049430
     atom   36 type  2   force =    -0.00032238    0.00048117   -0.00064786
     atom   37 type  1   force =    -0.00059438    0.00047643   -0.00065737
     atom   38 type  2   force =     0.00031897   -0.00097333    0.00001489
     atom   39 type  3   force =    -0.00087375    0.00083597    0.00038386
     atom   40 type  2   force =    -0.00093316   -0.00049202    0.00029607
     atom   41 type  3   force =    -0.00043674    0.00044360   -0.00007234
     atom   42 type  2   force =    -0.00029213    0.00057002   -0.00032446
     atom   43 type  3   force =     0.00019813   -0.00102938   -0.00047653
     atom   44 type  2   force =    -0.00009171    0.00024574   -0.00004652
     atom   45 type  1   force =    -0.00024193    0.00048784    0.00009516
     atom   46 type  2   force =    -0.00085668   -0.00061886   -0.00012588
     atom   47 type  3   force =    -0.00018392   -0.00007799   -0.00112215
     atom   48 type  2   force =    -0.00056735    0.00010037   -0.00017504
     atom   49 type  3   force =     0.00022133   -0.00084745    0.00059096
     atom   50 type  2   force =     0.00132199    0.00007995    0.00017548
     atom   51 type  1   force =    -0.00004798    0.00035354    0.00011782
     atom   52 type  2   force =    -0.00095534    0.00018285   -0.00032658
     atom   53 type  1   force =    -0.00030820    0.00049595    0.00062336
     atom   54 type  2   force =     0.00045342    0.00071614    0.00052102
     atom   55 type  1   force =    -0.00069638   -0.00031159    0.00010961
     atom   56 type  2   force =    -0.00049240   -0.00048083    0.00120389
     atom   57 type  3   force =     0.00025097   -0.00073002    0.00004539
     atom   58 type  2   force =     0.00152177    0.00007953   -0.00003919
     atom   59 type  3   force =    -0.00019192   -0.00020572    0.00047378
     atom   60 type  2   force =     0.00010430   -0.00040772    0.00026734
     atom   61 type  1   force =    -0.00074355   -0.00022458   -0.00031543
     atom   62 type  2   force =    -0.00091744   -0.00075940    0.00037621
     atom   63 type  3   force =     0.00085910    0.00083547   -0.00038663
     atom   64 type  2   force =     0.00015838   -0.00016471   -0.00047012

     Total force =     0.007190     Total SCF correction =     0.000225


     Computing stress (Cartesian axis) and pressure

          total   stress  (Ry/bohr**3)                   (kbar)     P=       45.58
   0.00033417  -0.00003050   0.00007087           49.16       -4.49       10.43
  -0.00003050   0.00029973  -0.00003328           -4.49       44.09       -4.90
   0.00007087  -0.00003328   0.00029574           10.43       -4.90       43.50


     Writing all to output data dir ../output/scf_sqs_all_x/tmp_x0375/TiAlN_x0375_scf.save/
 
     init_run     :      3.32s CPU      3.48s WALL (       1 calls)
     electrons    :    174.41s CPU    178.05s WALL (       1 calls)
     forces       :      1.86s CPU      1.91s WALL (       1 calls)
     stress       :     18.32s CPU     18.49s WALL (       1 calls)

     Called by init_run:
     wfcinit      :      2.87s CPU      2.99s WALL (       1 calls)
     potinit      :      0.21s CPU      0.22s WALL (       1 calls)
     hinit0       :      0.12s CPU      0.13s WALL (       1 calls)

     Called by electrons:
     c_bands      :    151.67s CPU    154.26s WALL (      21 calls)
     sum_band     :     16.31s CPU     16.82s WALL (      21 calls)
     v_of_rho     :      0.77s CPU      0.79s WALL (      22 calls)
     newd         :      1.30s CPU      1.59s WALL (      22 calls)
     PAW_pot      :      3.53s CPU      3.62s WALL (      22 calls)
     mix_rho      :      1.01s CPU      1.08s WALL (      21 calls)

     Called by c_bands:
     init_us_2    :      1.74s CPU      1.78s WALL (      90 calls)
     init_us_2:cp :      1.74s CPU      1.78s WALL (      90 calls)
     cegterg      :    130.56s CPU    133.04s WALL (      42 calls)

     Called by *egterg:
     cdiaghg      :     14.06s CPU     14.32s WALL (     224 calls)
     h_psi        :     63.52s CPU     64.50s WALL (     226 calls)
     s_psi        :     16.41s CPU     16.54s WALL (     226 calls)
     g_psi        :      0.29s CPU      0.29s WALL (     182 calls)

     Called by h_psi:
     h_psi:calbec :     16.24s CPU     16.37s WALL (     226 calls)
     vloc_psi     :     30.22s CPU     30.73s WALL (     226 calls)
     add_vuspsi   :     16.56s CPU     16.73s WALL (     226 calls)

     General routines
     calbec       :     24.17s CPU     24.36s WALL (     278 calls)
     fft          :      0.40s CPU      0.42s WALL (     267 calls)
     ffts         :      0.51s CPU      0.52s WALL (     439 calls)
     fftw         :     31.03s CPU     31.53s WALL (   64878 calls)
 
     Parallel routines
 
     PWSCF        :   3m18.43s CPU   3m23.21s WALL

 
   This run was terminated on:   4: 3:38  11May2026            

=------------------------------------------------------------------------------=
   JOB DONE.
=------------------------------------------------------------------------------=
