
     Program PWSCF v.7.1 starts on 11May2026 at  4: 0:15 

     This program is part of the open-source Quantum ESPRESSO suite
     for quantum simulation of materials; please cite
         "P. Giannozzi et al., J. Phys.:Condens. Matter 21 395502 (2009);
         "P. Giannozzi et al., J. Phys.:Condens. Matter 29 465901 (2017);
         "P. Giannozzi et al., J. Chem. Phys. 152 154105 (2020);
          URL http://www.quantum-espresso.org", 
     in publications or presentations arising from this work. More details at
     http://www.quantum-espresso.org/quote

     Parallel version (MPI & OpenMP), running on      32 processor cores
     Number of MPI processes:                32
     Threads/MPI process:                     1

     MPI processes distributed on     1 nodes
     381412 MiB available memory on the printing compute node when the environment starts
 
     Reading input from scf_sqs_x05.in

     Current dimensions of program PWSCF are:
     Max number of different atomic species (ntypx) = 10
     Max number of k-points (npk) = 150000
     Max angular momentum in pseudopotentials (lmaxx) =  4
     file Al.pbe-n-kjpaw_psl.1.0.0.UPF: wavefunction(s)  3S 3P renormalized
     file N.pbe-n-kjpaw_psl.1.0.0.UPF: wavefunction(s)  2S renormalized
     file Ti.pbe-spn-kjpaw_psl.1.0.0.UPF: wavefunction(s)  3S 3P 3D renormalized
 
     K-points division:     npool     =       4
     R & G space division:  proc/nbgrp/npool/nimage =       8
     Subspace diagonalization in iterative solution of the eigenvalue problem:
     one sub-group per band group will be used
     scalapack distributed-memory algorithm (size of sub-group:  2*  2 procs)

 
     Parallelization info
     --------------------
     sticks:   dense  smooth     PW     G-vecs:    dense   smooth      PW
     Min         588     588    161                30428    30428    4336
     Max         589     589    162                30433    30433    4339
     Sum        4709    4709   1289               243441   243441   34697
 
     Using Slab Decomposition
 


     bravais-lattice index     =            0
     lattice parameter (alat)  =      15.7036  a.u.
     unit-cell volume          =    3872.5735 (a.u.)^3
     number of atoms/cell      =           64
     number of atomic types    =            3
     number of electrons       =       400.00
     number of Kohn-Sham states=          240
     kinetic-energy cutoff     =      60.0000  Ry
     charge density cutoff     =     240.0000  Ry
     scf convergence threshold =      1.0E-08
     mixing beta               =       0.2000
     number of iterations used =            8  local-TF  mixing
     Exchange-correlation= SLA  PW   PBX  PBC
                           (   1   4   3   4   0   0   0)

     celldm(1)=  15.703624  celldm(2)=   0.000000  celldm(3)=   0.000000
     celldm(4)=   0.000000  celldm(5)=   0.000000  celldm(6)=   0.000000

     crystal axes: (cart. coord. in units of alat)
               a(1) = (   1.000000   0.000000   0.000000 )  
               a(2) = (   0.000000   1.000000   0.000000 )  
               a(3) = (   0.000000   0.000000   1.000000 )  

     reciprocal axes: (cart. coord. in units 2 pi/alat)
               b(1) = (  1.000000  0.000000  0.000000 )  
               b(2) = (  0.000000  1.000000  0.000000 )  
               b(3) = (  0.000000  0.000000  1.000000 )  


     PseudoPot. # 1 for Al read from file:
     ../../pseudo/Al.pbe-n-kjpaw_psl.1.0.0.UPF
     MD5 check sum: 502b6b27b9c6270cab5dd1084b96fa6d
     Pseudo is Projector augmented-wave + core cor, Zval =  3.0
     Generated using &quot;atomic&quot; code by A. Dal Corso  v.6.3
     Shape of augmentation charge: PSQ
     Using radial grid of 1135 points,  6 beta functions with: 
                l(1) =   0
                l(2) =   0
                l(3) =   1
                l(4) =   1
                l(5) =   2
                l(6) =   2
     Q(r) pseudized with 0 coefficients 


     PseudoPot. # 2 for N  read from file:
     ../../pseudo/N.pbe-n-kjpaw_psl.1.0.0.UPF
     MD5 check sum: 14c48229446f9f2d411169a3abcbc3fa
     Pseudo is Projector augmented-wave + core cor, Zval =  5.0
     Generated using &quot;atomic&quot; code by A. Dal Corso  v.6.3
     Shape of augmentation charge: PSQ
     Using radial grid of 1085 points,  4 beta functions with: 
                l(1) =   0
                l(2) =   0
                l(3) =   1
                l(4) =   1
     Q(r) pseudized with 0 coefficients 


     PseudoPot. # 3 for Ti read from file:
     ../../pseudo/Ti.pbe-spn-kjpaw_psl.1.0.0.UPF
     MD5 check sum: 01f69b0d8ba4438b2e03ac6ea4af1c0b
     Pseudo is Projector augmented-wave + core cor, Zval = 12.0
     Generated using &quot;atomic&quot; code by A. Dal Corso  v.6.2.2
     Shape of augmentation charge: PSQ
     Using radial grid of 1177 points,  6 beta functions with: 
                l(1) =   0
                l(2) =   0
                l(3) =   1
                l(4) =   1
                l(5) =   2
                l(6) =   2
     Q(r) pseudized with 0 coefficients 


     atomic species   valence    mass     pseudopotential
        Al             3.00    26.98200     Al( 1.00)
        N              5.00    14.00700     N ( 1.00)
        Ti            12.00    47.86700     Ti( 1.00)

     No symmetry found



   Cartesian axes

     site n.     atom                  positions (alat units)
         1           Al  tau(   1) = (  -0.0046008  -0.0012051   0.0041365  )
         2           N   tau(   2) = (   0.2462473  -0.0009255   0.0018350  )
         3           Al  tau(   3) = (  -0.0020099   0.2519017   0.2498529  )
         4           N   tau(   4) = (   0.2500416   0.2559959   0.2559189  )
         5           Ti  tau(   5) = (   0.2561448   0.0000430   0.2445245  )
         6           N   tau(   6) = (  -0.0036642   0.0003604   0.2470107  )
         7           Ti  tau(   7) = (   0.2548869   0.2505677  -0.0053658  )
         8           N   tau(   8) = (  -0.0021386   0.2459222   0.0078135  )
         9           Al  tau(   9) = (   0.0013640   0.0021635   0.4939598  )
        10           N   tau(  10) = (   0.2427856   0.0014033   0.4965400  )
        11           Ti  tau(  11) = (   0.0040736   0.2503644   0.7507005  )
        12           N   tau(  12) = (   0.2484312   0.2517460   0.7355646  )
        13           Ti  tau(  13) = (   0.2539117  -0.0002966   0.7532569  )
        14           N   tau(  14) = (  -0.0019366   0.0002519   0.7543394  )
        15           Al  tau(  15) = (   0.2491316   0.2492843   0.4938185  )
        16           N   tau(  16) = (   0.0018056   0.2442286   0.4912373  )
        17           Al  tau(  17) = (  -0.0026346   0.5019529   0.0055920  )
        18           N   tau(  18) = (   0.2379739   0.5007640   0.0096908  )
        19           Al  tau(  19) = (  -0.0022842   0.7491651   0.2488459  )
        20           N   tau(  20) = (   0.2501418   0.7439344   0.2543336  )
        21           Al  tau(  21) = (   0.2485530   0.4998975   0.2516297  )
        22           N   tau(  22) = (  -0.0036620   0.5004484   0.2457643  )
        23           Ti  tau(  23) = (   0.2537666   0.7495455  -0.0062513  )
        24           N   tau(  24) = (  -0.0046293   0.7533027   0.0081582  )
        25           Ti  tau(  25) = (  -0.0005552   0.5043226   0.5093545  )
        26           N   tau(  26) = (   0.2476650   0.4994131   0.4921996  )
        27           Ti  tau(  27) = (   0.0013788   0.7495166   0.7470999  )
        28           N   tau(  28) = (   0.2483402   0.7482738   0.7368917  )
        29           Ti  tau(  29) = (   0.2517951   0.5005591   0.7529116  )
        30           N   tau(  30) = (  -0.0076722   0.4997138   0.7628207  )
        31           Al  tau(  31) = (   0.2478575   0.7518906   0.4933928  )
        32           N   tau(  32) = (   0.0055042   0.7595155   0.4897867  )
        33           Al  tau(  33) = (   0.5072959  -0.0030703   0.0054293  )
        34           N   tau(  34) = (   0.7524927  -0.0055720   0.0072715  )
        35           Al  tau(  35) = (   0.5026066   0.2533894   0.2536515  )
        36           N   tau(  36) = (   0.7497574   0.2524047   0.2543801  )
        37           Al  tau(  37) = (   0.7513112   0.0002013   0.2495977  )
        38           N   tau(  38) = (   0.5059302  -0.0005232   0.2446717  )
        39           Ti  tau(  39) = (   0.7444515   0.2508237  -0.0075252  )
        40           N   tau(  40) = (   0.5013945   0.2387683   0.0112538  )
        41           Ti  tau(  41) = (   0.5034380  -0.0044135   0.5095033  )
        42           N   tau(  42) = (   0.7595592   0.0079627   0.4908346  )
        43           Ti  tau(  43) = (   0.4959320   0.2498429   0.7509799  )
        44           N   tau(  44) = (   0.7511985   0.2579175   0.7404196  )
        45           Ti  tau(  45) = (   0.7453895  -0.0028332   0.7448496  )
        46           N   tau(  46) = (   0.5017740   0.0003918   0.7650874  )
        47           Al  tau(  47) = (   0.7514704   0.2506486   0.4959637  )
        48           N   tau(  48) = (   0.4979245   0.2484263   0.4908873  )
        49           Ti  tau(  49) = (   0.4926568   0.4967653  -0.0077589  )
        50           N   tau(  50) = (   0.7557591   0.5046508   0.0018938  )
        51           Al  tau(  51) = (   0.5028150   0.7456256   0.2482262  )
        52           N   tau(  52) = (   0.7494682   0.7478625   0.2474101  )
        53           Al  tau(  53) = (   0.7498617   0.4999648   0.2489591  )
        54           N   tau(  54) = (   0.5024033   0.4995709   0.2483255  )
        55           Al  tau(  55) = (   0.7509825   0.7490932   0.0041340  )
        56           N   tau(  56) = (   0.5064724   0.7570129   0.0091588  )
        57           Ti  tau(  57) = (   0.5001073   0.5040367   0.5091586  )
        58           N   tau(  58) = (   0.7519706   0.4929912   0.4995663  )
        59           Ti  tau(  59) = (   0.4985847   0.7507242   0.7468623  )
        60           N   tau(  60) = (   0.7512234   0.7406745   0.7594624  )
        61           Al  tau(  61) = (   0.7524077   0.5000241   0.7535791  )
        62           N   tau(  62) = (   0.5117174   0.4997413   0.7510553  )
        63           Ti  tau(  63) = (   0.7456647   0.7519010   0.5069807  )
        64           N   tau(  64) = (   0.4899668   0.7509749   0.4883669  )

     number of k points=     8  Gaussian smearing, width (Ry)=  0.0050
                       cart. coord. in units 2pi/alat
        k(    1) = (   0.0000000   0.0000000   0.0000000), wk =   0.2500000
        k(    2) = (   0.0000000   0.0000000  -0.5000000), wk =   0.2500000
        k(    3) = (   0.0000000  -0.5000000  -0.5000000), wk =   0.2500000
        k(    4) = (  -0.5000000  -0.5000000  -0.5000000), wk =   0.2500000
        k(    5) = (  -0.5000000   0.0000000   0.0000000), wk =   0.2500000
        k(    6) = (   0.0000000  -0.5000000   0.0000000), wk =   0.2500000
        k(    7) = (  -0.5000000   0.0000000   0.5000000), wk =   0.2500000
        k(    8) = (  -0.5000000   0.5000000   0.0000000), wk =   0.2500000

     Dense  grid:   243441 G-vectors     FFT dimensions: (  80,  80,  80)

     Estimated max dynamical RAM per process >     201.76 MB

     Estimated total dynamical RAM >       6.13 GB

     Check: negative core charge=   -0.000021

     Initial potential from superposition of free atoms

     starting charge     399.9395, renormalised to     400.0000
     Starting wfcs are  352 randomized atomic wfcs
     Checking if some PAW data can be deallocated... 

     total cpu time spent up to now is        3.6 secs

     Self-consistent Calculation

     iteration #  1     ecut=    60.00 Ry     beta= 0.20
     Davidson diagonalization with overlap
     ethr =  1.00E-02,  avg # of iterations =  2.0

     total cpu time spent up to now is       10.0 secs

     total energy              =   -4482.65069920 Ry
     estimated scf accuracy    <      18.50551023 Ry

     iteration #  2     ecut=    60.00 Ry     beta= 0.20
     Davidson diagonalization with overlap
     ethr =  4.63E-03,  avg # of iterations =  1.0

     total cpu time spent up to now is       15.2 secs

     total energy              =   -4478.15586335 Ry
     estimated scf accuracy    <      10.49304399 Ry

     iteration #  3     ecut=    60.00 Ry     beta= 0.20
     Davidson diagonalization with overlap
     ethr =  2.62E-03,  avg # of iterations =  3.1

     total cpu time spent up to now is       22.4 secs

     total energy              =   -4480.61768619 Ry
     estimated scf accuracy    <       0.59334097 Ry

     iteration #  4     ecut=    60.00 Ry     beta= 0.20
     Davidson diagonalization with overlap
     ethr =  1.48E-04,  avg # of iterations =  6.4

     total cpu time spent up to now is       30.3 secs

     total energy              =   -4480.68340421 Ry
     estimated scf accuracy    <       0.40022430 Ry

     iteration #  5     ecut=    60.00 Ry     beta= 0.20
     Davidson diagonalization with overlap
     ethr =  1.00E-04,  avg # of iterations =  1.2

     total cpu time spent up to now is       35.9 secs

     total energy              =   -4480.65722585 Ry
     estimated scf accuracy    <       0.19946936 Ry

     iteration #  6     ecut=    60.00 Ry     beta= 0.20
     Davidson diagonalization with overlap
     ethr =  4.99E-05,  avg # of iterations =  2.0

     total cpu time spent up to now is       42.3 secs

     total energy              =   -4480.65979773 Ry
     estimated scf accuracy    <       0.07017846 Ry

     iteration #  7     ecut=    60.00 Ry     beta= 0.20
     Davidson diagonalization with overlap
     ethr =  1.75E-05,  avg # of iterations =  1.9

     total cpu time spent up to now is       48.1 secs

     total energy              =   -4480.65613035 Ry
     estimated scf accuracy    <       0.02007365 Ry

     iteration #  8     ecut=    60.00 Ry     beta= 0.20
     Davidson diagonalization with overlap
     ethr =  5.02E-06,  avg # of iterations =  7.8

     total cpu time spent up to now is       59.2 secs

     total energy              =   -4480.65992559 Ry
     estimated scf accuracy    <       0.00990040 Ry

     iteration #  9     ecut=    60.00 Ry     beta= 0.20
     Davidson diagonalization with overlap
     ethr =  2.48E-06,  avg # of iterations =  2.0

     total cpu time spent up to now is       65.9 secs

     total energy              =   -4480.66127239 Ry
     estimated scf accuracy    <       0.00094117 Ry

     iteration # 10     ecut=    60.00 Ry     beta= 0.20
     Davidson diagonalization with overlap
     ethr =  2.35E-07,  avg # of iterations =  5.9

     total cpu time spent up to now is       74.8 secs

     total energy              =   -4480.66139895 Ry
     estimated scf accuracy    <       0.00061484 Ry

     iteration # 11     ecut=    60.00 Ry     beta= 0.20
     Davidson diagonalization with overlap
     ethr =  1.54E-07,  avg # of iterations =  1.0

     total cpu time spent up to now is       80.1 secs

     total energy              =   -4480.66132359 Ry
     estimated scf accuracy    <       0.00032631 Ry

     iteration # 12     ecut=    60.00 Ry     beta= 0.20
     Davidson diagonalization with overlap
     ethr =  8.16E-08,  avg # of iterations =  2.4

     total cpu time spent up to now is       87.1 secs

     total energy              =   -4480.66129267 Ry
     estimated scf accuracy    <       0.00023396 Ry

     iteration # 13     ecut=    60.00 Ry     beta= 0.20
     Davidson diagonalization with overlap
     ethr =  5.85E-08,  avg # of iterations =  2.0

     total cpu time spent up to now is       93.4 secs

     total energy              =   -4480.66132241 Ry
     estimated scf accuracy    <       0.00001511 Ry

     iteration # 14     ecut=    60.00 Ry     beta= 0.20
     Davidson diagonalization with overlap
     ethr =  3.78E-09,  avg # of iterations =  7.0

     total cpu time spent up to now is      102.5 secs

     total energy              =   -4480.66132180 Ry
     estimated scf accuracy    <       0.00000802 Ry

     iteration # 15     ecut=    60.00 Ry     beta= 0.20
     Davidson diagonalization with overlap
     ethr =  2.00E-09,  avg # of iterations =  4.6

     total cpu time spent up to now is      109.7 secs

     total energy              =   -4480.66132251 Ry
     estimated scf accuracy    <       0.00000126 Ry

     iteration # 16     ecut=    60.00 Ry     beta= 0.20
     Davidson diagonalization with overlap
     ethr =  3.16E-10,  avg # of iterations =  5.0

     total cpu time spent up to now is      118.3 secs

     total energy              =   -4480.66132268 Ry
     estimated scf accuracy    <       0.00000100 Ry

     iteration # 17     ecut=    60.00 Ry     beta= 0.20
     Davidson diagonalization with overlap
     ethr =  2.50E-10,  avg # of iterations =  2.0

     total cpu time spent up to now is      124.5 secs

     total energy              =   -4480.66132265 Ry
     estimated scf accuracy    <       0.00000027 Ry

     iteration # 18     ecut=    60.00 Ry     beta= 0.20
     Davidson diagonalization with overlap
     ethr =  6.87E-11,  avg # of iterations =  2.0

     total cpu time spent up to now is      131.4 secs

     total energy              =   -4480.66132264 Ry
     estimated scf accuracy    <       0.00000026 Ry

     iteration # 19     ecut=    60.00 Ry     beta= 0.20
     Davidson diagonalization with overlap
     ethr =  6.60E-11,  avg # of iterations =  1.0

     total cpu time spent up to now is      136.6 secs

     total energy              =   -4480.66132262 Ry
     estimated scf accuracy    <       0.00000012 Ry

     iteration # 20     ecut=    60.00 Ry     beta= 0.20
     Davidson diagonalization with overlap
     ethr =  2.96E-11,  avg # of iterations =  2.9

     total cpu time spent up to now is      143.2 secs

     total energy              =   -4480.66132264 Ry
     estimated scf accuracy    <       0.00000002 Ry

     iteration # 21     ecut=    60.00 Ry     beta= 0.20
     Davidson diagonalization with overlap
     ethr =  5.89E-12,  avg # of iterations =  5.0

     total cpu time spent up to now is      152.0 secs

     total energy              =   -4480.66132264 Ry
     estimated scf accuracy    <       0.00000004 Ry

     iteration # 22     ecut=    60.00 Ry     beta= 0.20
     Davidson diagonalization with overlap
     ethr =  5.89E-12,  avg # of iterations =  2.0

     total cpu time spent up to now is      158.0 secs

     total energy              =   -4480.66132264 Ry
     estimated scf accuracy    <       0.00000001 Ry

     iteration # 23     ecut=    60.00 Ry     beta= 0.20
     Davidson diagonalization with overlap
     ethr =  2.62E-12,  avg # of iterations =  5.0

     total cpu time spent up to now is      166.0 secs

     End of self-consistent calculation

          k = 0.0000 0.0000 0.0000 ( 30551 PWs)   bands (ev):

   -43.0831 -42.8562 -42.6921 -42.6687 -42.6306 -42.5977 -42.5543 -42.5170
   -42.5026 -42.4667 -42.4411 -42.4186 -42.3922 -42.3859 -42.3828 -42.3581
   -19.4903 -19.3980 -19.3760 -19.2966 -19.2375 -19.2127 -19.1975 -19.1785
   -19.1517 -19.1230 -19.1178 -19.0788 -19.0666 -19.0461 -19.0403 -19.0159
   -18.9985 -18.9901 -18.9801 -18.9731 -18.9503 -18.9338 -18.9191 -18.8946
   -18.8872 -18.8772 -18.8668 -18.8508 -18.8328 -18.8136 -18.7957 -18.7613
   -18.7533 -18.7443 -18.7167 -18.7126 -18.6987 -18.6764 -18.6656 -18.6604
   -18.6234 -18.6068 -18.6038 -18.5916 -18.5910 -18.5811 -18.5593 -18.5400
    -3.1910  -2.0184  -1.8887  -1.8150  -1.7785  -1.6474  -1.5677  -0.9263
    -0.8087  -0.7616  -0.7507  -0.7261  -0.6763  -0.6484  -0.6226  -0.5945
    -0.5635  -0.4940  -0.4625  -0.3727  -0.2686  -0.2222  -0.2117  -0.1723
    -0.1062  -0.0898   0.0242   0.1320   0.1795   0.2529   0.2851   0.3505
     5.7780   5.8442   5.8924   5.9375   7.1757   7.2134   7.2161   7.2823
     7.3175   7.4149   7.4916   7.5448   7.6249   7.7292   7.7462   7.9803
     8.0050   8.0537   8.1284   8.1873   8.2050   8.2316   8.2958   8.3445
     8.5332   8.5577   8.6267   8.6324   8.7195   8.7739   8.8280   8.8568
     9.0193   9.0496   9.1110   9.1274   9.1795   9.4470   9.4865   9.5304
     9.5652   9.6061   9.6326   9.6515   9.6626   9.7317   9.7668   9.7820
     9.8405   9.9467   9.9682  10.0082  10.1134  10.2191  10.2663  10.3071
    10.4242  10.4839  10.5592  10.6140  10.6567  10.7855  10.8233  10.8723
    10.9459  10.9862  11.0747  11.0997  11.1750  11.1904  11.2216  11.2706
    11.3159  11.3738  11.4358  11.5352  11.6226  11.6817  11.6931  11.7561
    11.8033  11.8499  11.8847  11.9037  11.9440  11.9712  11.9802  12.0212
    12.0656  12.1609  12.1767  12.1887  12.2034  12.8039  13.0570  13.1575
    13.1766  13.2161  13.2469  14.0878  14.1375  14.2326  14.2882  14.3834
    14.6506  15.3320  15.3690  15.7816  16.0464  16.0544  16.1990  16.2069
    16.3039  16.3409  16.4052  16.4475  16.5134  16.5557  16.5973  16.6500
    16.6877  16.7100  16.7697  16.7941  16.8289  16.8438  16.8660  16.9254
    16.9670  16.9792  17.0196  17.0299  17.0456  17.0878  17.0977  17.1070
    17.1475  17.2109  17.2267  17.2367  17.2724  17.3343  17.3351  17.3763

          k = 0.0000 0.0000-0.5000 ( 30334 PWs)   bands (ev):

   -43.0831 -42.8562 -42.6921 -42.6686 -42.6306 -42.5977 -42.5543 -42.5169
   -42.5025 -42.4667 -42.4410 -42.4185 -42.3922 -42.3858 -42.3828 -42.3580
   -19.4902 -19.3979 -19.3745 -19.2972 -19.2376 -19.2126 -19.1979 -19.1786
   -19.1521 -19.1226 -19.1178 -19.0804 -19.0630 -19.0478 -19.0349 -19.0184
   -18.9996 -18.9918 -18.9801 -18.9731 -18.9493 -18.9357 -18.9191 -18.8933
   -18.8884 -18.8795 -18.8664 -18.8500 -18.8330 -18.8139 -18.7956 -18.7611
   -18.7548 -18.7443 -18.7160 -18.7113 -18.6980 -18.6775 -18.6658 -18.6572
   -18.6245 -18.6076 -18.6011 -18.5919 -18.5909 -18.5825 -18.5595 -18.5403
    -2.9663  -2.5452  -1.7583  -1.6471  -1.6176  -1.5035  -1.3754  -1.2169
    -1.1540  -1.0979  -0.9338  -0.8046  -0.6488  -0.5557  -0.5162  -0.4801
    -0.4544  -0.4453  -0.4190  -0.3981  -0.3336  -0.2712  -0.1896  -0.1200
    -0.0664  -0.0067   0.0122   0.1366   0.2459   0.2850   0.3193   0.3399
     6.1285   6.2393   6.2641   6.4140   6.5079   6.8343   7.1099   7.1796
     7.1988   7.3899   7.4198   7.4645   7.5340   7.7815   7.8630   7.8812
     7.9772   8.0183   8.0412   8.1101   8.1286   8.1942   8.2324   8.2464
     8.3451   8.4326   8.4792   8.5442   8.5676   8.6641   8.7036   8.7585
     8.8847   9.0242   9.1600   9.2834   9.4418   9.4802   9.5302   9.5526
     9.6581   9.6935   9.7035   9.7475   9.7795   9.8322   9.8780   9.9539
    10.0244  10.1203  10.1572  10.2306  10.3135  10.3299  10.3615  10.5428
    10.5561  10.6148  10.6975  10.7437  10.7682  10.7911  10.8230  10.8308
    10.8959  10.9384  10.9513  11.0089  11.0300  11.0914  11.1120  11.1434
    11.1998  11.2529  11.2841  11.3602  11.4152  11.4442  11.4758  11.5590
    11.6163  11.6396  11.7099  11.7829  11.8813  11.9339  12.0315  12.0442
    12.1478  12.1552  12.1802  12.1951  12.5817  12.6088  12.6761  12.7186
    12.8331  13.9071  13.9852  14.0998  14.5885  14.6186  14.8130  14.8210
    14.8741  15.3983  15.4770  15.7312  15.7578  15.8250  15.9040  16.0860
    16.1923  16.2303  16.2425  16.3082  16.3884  16.4115  16.4446  16.5035
    16.5370  16.5932  16.6120  16.6757  16.7506  16.8010  16.8239  16.8617
    16.8726  16.9172  16.9743  17.0482  17.0509  17.0765  17.1068  17.1729
    17.2197  17.2382  17.2511  17.2947  17.3006  17.3827  17.4120  17.4361

          k = 0.0000-0.5000-0.5000 ( 30432 PWs)   bands (ev):

   -43.0831 -42.8562 -42.6916 -42.6694 -42.6304 -42.5975 -42.5538 -42.5186
   -42.5014 -42.4665 -42.4432 -42.4178 -42.3921 -42.3882 -42.3754 -42.3621
   -19.4902 -19.3972 -19.3742 -19.2893 -19.2305 -19.2135 -19.1849 -19.1744
   -19.1379 -19.1314 -19.1247 -19.1037 -19.0734 -19.0511 -19.0418 -19.0136
   -19.0054 -18.9971 -18.9913 -18.9722 -18.9421 -18.9377 -18.9251 -18.9059
   -18.8931 -18.8729 -18.8714 -18.8465 -18.8322 -18.8055 -18.7868 -18.7663
   -18.7309 -18.7204 -18.7156 -18.7036 -18.6856 -18.6777 -18.6563 -18.6501
   -18.6413 -18.6286 -18.6173 -18.5975 -18.5851 -18.5727 -18.5617 -18.5499
    -2.6433  -2.5517  -2.1818  -2.1166  -1.3512  -1.2891  -1.2552  -1.2016
    -1.0381  -0.9554  -0.9393  -0.8730  -0.8112  -0.6813  -0.5875  -0.5313
    -0.5172  -0.5074  -0.3830  -0.3563  -0.2520  -0.2032  -0.1035  -0.0553
    -0.0271   0.0173   0.0283   0.0724   0.2092   0.2213   0.2698   0.3394
     6.1114   6.3121   6.5501   6.6134   6.7075   6.9066   7.1162   7.1733
     7.2118   7.3317   7.4416   7.4736   7.5080   7.5703   7.6097   7.6396
     7.6923   7.8472   7.9101   8.0511   8.0902   8.1161   8.1909   8.2179
     8.3246   8.3508   8.4268   8.5335   8.5915   8.6648   8.8840   8.9461
     9.1952   9.2408   9.2872   9.3629   9.5099   9.5536   9.6004   9.6776
     9.7070   9.7886   9.8513   9.8943   9.9302   9.9412  10.0611  10.0842
    10.1076  10.1737  10.1888  10.2073  10.2694  10.2996  10.3875  10.4208
    10.4587  10.4732  10.5921  10.6280  10.6532  10.7111  10.7564  10.7737
    10.7977  10.8716  10.8961  10.9595  11.0321  11.0434  11.0733  11.1224
    11.1979  11.2589  11.3368  11.3953  11.4508  11.4814  11.5231  11.5508
    11.6194  11.6632  11.7134  11.7685  11.7871  11.8023  11.8801  11.9028
    11.9522  11.9631  12.0646  12.1545  12.1936  12.2449  12.5236  12.5489
    14.1277  14.1962  14.3040  14.4820  14.5459  14.6148  14.9822  15.0215
    15.0873  15.1792  15.3593  15.4145  15.4673  15.5135  15.6616  15.7607
    15.9047  15.9444  16.0111  16.0609  16.2061  16.2932  16.3819  16.4144
    16.4735  16.5062  16.5540  16.5934  16.6306  16.6949  16.8461  16.9072
    16.9303  16.9627  16.9746  17.0131  17.0924  17.1246  17.2033  17.2824
    17.2893  17.3055  17.3493  17.3667  17.4176  17.4649  17.4942  17.5229

          k =-0.5000-0.5000-0.5000 ( 30592 PWs)   bands (ev):

   -43.0831 -42.8562 -42.6916 -42.6693 -42.6302 -42.5979 -42.5540 -42.5188
   -42.5012 -42.4664 -42.4429 -42.4179 -42.3921 -42.3882 -42.3755 -42.3623
   -19.4902 -19.3971 -19.3739 -19.2855 -19.2287 -19.2154 -19.1868 -19.1702
   -19.1499 -19.1361 -19.1287 -19.0859 -19.0550 -19.0495 -19.0376 -19.0248
   -19.0204 -19.0126 -18.9792 -18.9653 -18.9582 -18.9334 -18.9193 -18.8953
   -18.8940 -18.8762 -18.8678 -18.8494 -18.8268 -18.8067 -18.7877 -18.7742
   -18.7321 -18.7263 -18.7162 -18.7018 -18.6884 -18.6773 -18.6631 -18.6564
   -18.6417 -18.6259 -18.6122 -18.5954 -18.5858 -18.5662 -18.5603 -18.5474
    -2.4266  -2.2929  -2.1411  -2.0668  -1.9172  -1.7159  -1.6393  -1.5411
    -0.7486  -0.7290  -0.6798  -0.6424  -0.6356  -0.6093  -0.5280  -0.4767
    -0.3743  -0.3501  -0.2988  -0.2604  -0.2249  -0.1965  -0.1456  -0.1069
    -0.0833  -0.0572  -0.0164   0.0288   0.0707   0.1200   0.1677   0.1782
     6.5094   6.5331   6.6745   6.7590   6.8019   6.8593   6.9085   6.9341
     6.9675   7.0709   7.2157   7.2564   7.4144   7.5242   7.5821   7.7205
     7.7431   7.8376   7.8720   7.9102   8.0213   8.0672   8.1775   8.5782
     8.7172   8.7770   8.8780   8.9272   8.9977   9.0529   9.1124   9.1282
     9.2129   9.2806   9.3343   9.3917   9.4312   9.4989   9.5202   9.5397
     9.5799   9.6221   9.6339   9.6527   9.7332   9.7755   9.8375   9.8641
     9.8782   9.9515   9.9941  10.0330  10.1499  10.1814  10.2561  10.2845
    10.4272  10.5018  10.5610  10.5797  10.6569  10.6752  10.6967  10.7507
    10.7908  10.8220  10.8710  10.9347  10.9750  11.0095  11.0824  11.1438
    11.1640  11.2055  11.3363  11.3912  11.4053  11.4446  11.4891  11.5959
    11.6992  11.7420  11.7758  11.7905  11.9190  11.9318  11.9607  12.0208
    12.0734  12.1159  12.1531  12.2776  12.3127  12.3513  12.3926  12.4686
    14.4825  14.5311  14.5601  14.6542  14.7178  14.7499  14.8701  14.9108
    14.9992  15.0999  15.1594  15.2922  15.3637  15.4215  15.4585  15.6040
    15.6554  15.6708  15.9445  15.9798  16.0337  16.0685  16.1300  16.1553
    16.2516  16.2957  16.3145  16.3950  16.4616  16.4819  16.5505  16.9183
    17.0085  17.0275  17.0801  17.1604  17.1780  17.2169  17.2544  17.3673
    17.3718  17.4136  17.4359  17.4694  17.4935  17.5525  17.5754  17.5887

          k =-0.5000 0.0000 0.0000 ( 30334 PWs)   bands (ev):

   -43.0831 -42.8562 -42.6920 -42.6686 -42.6303 -42.5981 -42.5547 -42.5170
   -42.5023 -42.4664 -42.4409 -42.4187 -42.3922 -42.3858 -42.3828 -42.3582
   -19.4903 -19.3977 -19.3761 -19.2873 -19.2259 -19.2148 -19.1874 -19.1707
   -19.1404 -19.1334 -19.1199 -19.1101 -19.0860 -19.0546 -19.0345 -19.0119
   -19.0083 -19.0016 -18.9868 -18.9645 -18.9537 -18.9330 -18.9166 -18.9080
   -18.8835 -18.8701 -18.8624 -18.8378 -18.8259 -18.8097 -18.7787 -18.7631
   -18.7525 -18.7461 -18.7147 -18.7023 -18.6966 -18.6748 -18.6689 -18.6530
   -18.6296 -18.6122 -18.6028 -18.5984 -18.5930 -18.5809 -18.5657 -18.5407
    -2.9021  -2.6612  -1.7979  -1.6984  -1.4628  -1.4325  -1.4093  -1.2673
    -1.2143  -1.0922  -0.8978  -0.7804  -0.5631  -0.5489  -0.5068  -0.4710
    -0.4418  -0.3658  -0.3183  -0.3113  -0.2914  -0.2400  -0.2208  -0.1166
    -0.0916  -0.0209   0.0133   0.0867   0.1274   0.1567   0.1892   0.3009
     6.1864   6.2089   6.2464   6.4299   6.5699   6.7092   6.7460   6.8272
     7.2958   7.3723   7.3938   7.5078   7.5601   7.6589   7.6991   7.7513
     7.9713   8.0595   8.1044   8.1782   8.2213   8.3114   8.3415   8.4197
     8.4266   8.5808   8.6216   8.6531   8.6677   8.7706   8.8077   8.8571
     8.9145   9.0582   9.1121   9.1430   9.2124   9.5499   9.6534   9.7404
     9.8017   9.8419   9.8960   9.9414   9.9691  10.0155  10.0800  10.1433
    10.2303  10.2550  10.2788  10.3161  10.3609  10.3871  10.4018  10.5173
    10.5385  10.5897  10.6102  10.6644  10.6834  10.7199  10.7477  10.7847
    10.8346  10.8777  10.9248  10.9341  10.9935  11.0357  11.0663  11.0944
    11.1305  11.1520  11.1806  11.1838  11.3273  11.3807  11.4478  11.4838
    11.5073  11.5179  11.6059  11.6196  11.7089  11.7531  11.8413  11.9000
    11.9251  11.9803  12.1142  12.1542  12.5794  12.6226  12.6539  12.6957
    13.1254  13.7563  14.1015  14.2430  14.6832  14.7668  14.8292  14.9915
    15.0470  15.1561  15.2158  15.2803  15.4666  15.7365  15.7686  15.9625
    15.9875  16.1186  16.1913  16.2761  16.3504  16.3830  16.5024  16.5166
    16.5698  16.6355  16.7181  16.7596  16.8065  16.8310  16.8461  16.9374
    16.9511  17.0048  17.0256  17.0426  17.0546  17.1185  17.1519  17.1538
    17.1962  17.2157  17.2720  17.3009  17.3390  17.3409  17.3642  17.4364

          k = 0.0000-0.5000 0.0000 ( 30334 PWs)   bands (ev):

   -43.0831 -42.8562 -42.6916 -42.6693 -42.6304 -42.5975 -42.5538 -42.5186
   -42.5014 -42.4664 -42.4431 -42.4179 -42.3921 -42.3881 -42.3754 -42.3621
   -19.4903 -19.3973 -19.3756 -19.2896 -19.2303 -19.2133 -19.1857 -19.1728
   -19.1365 -19.1300 -19.1260 -19.1030 -19.0727 -19.0537 -19.0414 -19.0161
   -19.0060 -18.9968 -18.9905 -18.9720 -18.9414 -18.9367 -18.9246 -18.9063
   -18.8902 -18.8746 -18.8698 -18.8483 -18.8321 -18.8053 -18.7876 -18.7657
   -18.7307 -18.7203 -18.7164 -18.7030 -18.6824 -18.6780 -18.6616 -18.6514
   -18.6402 -18.6273 -18.6157 -18.5974 -18.5848 -18.5726 -18.5621 -18.5508
    -2.8278  -2.7707  -1.7623  -1.6358  -1.5100  -1.4347  -1.3363  -1.3306
    -1.2360  -1.0563  -0.9235  -0.7708  -0.5749  -0.5437  -0.4813  -0.4581
    -0.4489  -0.4169  -0.3293  -0.3072  -0.2746  -0.2447  -0.1793  -0.1455
    -0.0892  -0.0756  -0.0387   0.0653   0.1621   0.1762   0.2214   0.3279
     6.0928   6.2081   6.4118   6.4275   6.4851   6.5887   6.8607   6.9235
     7.2864   7.4039   7.4560   7.5024   7.5272   7.6576   7.7128   7.7705
     7.8290   7.8809   8.1168   8.2421   8.2590   8.2763   8.3777   8.4449
     8.4989   8.5678   8.5867   8.6187   8.6612   8.7422   8.8013   8.8833
     8.9149   9.0655   9.1618   9.2310   9.2883   9.5120   9.7115   9.7515
     9.7993   9.8457   9.8927   9.9455   9.9646   9.9731  10.0562  10.0667
    10.0963  10.1928  10.2690  10.2862  10.3211  10.4220  10.4342  10.5034
    10.5071  10.5332  10.5474  10.6156  10.6551  10.6775  10.7232  10.7723
    10.8252  10.8610  10.8838  10.9944  11.0627  11.0700  11.0820  11.0950
    11.1632  11.2214  11.2401  11.2821  11.3282  11.3993  11.4098  11.4415
    11.5619  11.5844  11.6146  11.6889  11.7391  11.7685  11.7796  11.8371
    11.9599  12.0081  12.1020  12.1394  12.6142  12.6474  12.6621  12.7059
    13.4489  13.4799  14.2805  14.4017  14.4894  14.5318  14.8862  14.9684
    14.9968  15.0459  15.0633  15.5169  15.5622  15.6050  15.6329  15.9976
    16.1275  16.1536  16.2163  16.2539  16.3270  16.4391  16.5011  16.5332
    16.5777  16.6033  16.6088  16.6675  16.7606  16.8356  16.8719  16.8959
    16.9782  17.0168  17.0552  17.0820  17.0924  17.1725  17.1831  17.2164
    17.2346  17.2811  17.3047  17.3305  17.3357  17.3684  17.4206  17.4481

          k =-0.5000 0.0000 0.5000 ( 30432 PWs)   bands (ev):

   -43.0831 -42.8562 -42.6920 -42.6686 -42.6303 -42.5981 -42.5546 -42.5170
   -42.5023 -42.4665 -42.4409 -42.4186 -42.3922 -42.3858 -42.3828 -42.3582
   -19.4902 -19.3976 -19.3744 -19.2878 -19.2260 -19.2148 -19.1875 -19.1704
   -19.1411 -19.1341 -19.1211 -19.1100 -19.0845 -19.0542 -19.0392 -19.0113
   -19.0082 -19.0018 -18.9804 -18.9648 -18.9542 -18.9312 -18.9169 -18.9083
   -18.8839 -18.8722 -18.8650 -18.8381 -18.8252 -18.8097 -18.7787 -18.7629
   -18.7526 -18.7486 -18.7138 -18.7014 -18.6963 -18.6766 -18.6689 -18.6492
   -18.6297 -18.6127 -18.6014 -18.5983 -18.5928 -18.5813 -18.5666 -18.5412
    -2.7003  -2.4701  -2.2547  -1.9861  -1.3855  -1.3484  -1.2925  -1.2694
    -1.0619  -1.0007  -0.8500  -0.8397  -0.8159  -0.7123  -0.6143  -0.5779
    -0.5033  -0.4338  -0.2946  -0.2700  -0.2381  -0.1881  -0.1324  -0.0707
    -0.0087   0.0141   0.0584   0.0649   0.2049   0.2122   0.2223   0.2868
     6.1921   6.2845   6.4510   6.6913   6.7413   7.0234   7.0810   7.1618
     7.1716   7.2562   7.3114   7.4910   7.5361   7.5769   7.6197   7.6695
     7.6758   7.7714   7.8300   7.8821   8.0518   8.0775   8.1807   8.2758
     8.3374   8.5040   8.5222   8.6057   8.6525   8.7288   8.9232   9.0076
     9.1122   9.1880   9.2022   9.3713   9.4837   9.5367   9.6329   9.7068
     9.7403   9.7982   9.8726   9.9271   9.9355   9.9830  10.0431  10.0807
    10.1350  10.1813  10.1915  10.2453  10.2787  10.3558  10.4049  10.4287
    10.5003  10.5279  10.5497  10.5818  10.6682  10.7499  10.7726  10.8056
    10.8403  10.8696  10.8954  10.9398  10.9662  11.0026  11.0456  11.0956
    11.1470  11.1796  11.3070  11.3356  11.4606  11.5185  11.5267  11.5761
    11.6699  11.7059  11.7161  11.7451  11.7731  11.8027  11.8607  11.8934
    11.9553  11.9705  12.0105  12.0642  12.1414  12.2857  12.3963  12.6009
    13.9252  14.1286  14.3702  14.3792  14.6863  14.8066  14.9230  15.0222
    15.1649  15.2225  15.2818  15.4435  15.4954  15.5350  15.7294  15.8134
    15.8268  16.0066  16.0888  16.1171  16.1577  16.1938  16.3918  16.4203
    16.4629  16.4782  16.5804  16.6660  16.6844  16.7640  16.7970  16.8584
    16.9063  16.9543  16.9638  17.0052  17.0287  17.0990  17.1317  17.1648
    17.2218  17.2507  17.3100  17.3474  17.3671  17.4434  17.4760  17.5288

          k =-0.5000 0.5000 0.0000 ( 30432 PWs)   bands (ev):

   -43.0831 -42.8562 -42.6916 -42.6693 -42.6302 -42.5979 -42.5540 -42.5188
   -42.5012 -42.4663 -42.4428 -42.4180 -42.3921 -42.3881 -42.3754 -42.3623
   -19.4904 -19.3972 -19.3759 -19.2854 -19.2286 -19.2153 -19.1857 -19.1677
   -19.1488 -19.1363 -19.1285 -19.0856 -19.0562 -19.0489 -19.0385 -19.0248
   -19.0234 -19.0133 -18.9804 -18.9681 -18.9570 -18.9335 -18.9206 -18.8948
   -18.8895 -18.8732 -18.8676 -18.8489 -18.8262 -18.8066 -18.7873 -18.7738
   -18.7328 -18.7262 -18.7168 -18.7013 -18.6872 -18.6779 -18.6686 -18.6574
   -18.6396 -18.6253 -18.6116 -18.5948 -18.5847 -18.5665 -18.5605 -18.5481
    -2.5720  -2.4967  -2.3064  -2.2534  -1.3276  -1.2565  -1.2181  -1.1647
    -1.0602  -0.9394  -0.9128  -0.8926  -0.6705  -0.6532  -0.5494  -0.5240
    -0.4506  -0.4260  -0.3549  -0.2780  -0.2638  -0.1456  -0.1178  -0.1002
    -0.0807  -0.0309   0.0238   0.0634   0.1111   0.1409   0.1642   0.2197
     6.2329   6.3089   6.5377   6.6318   6.6728   6.7065   6.9079   6.9562
     7.0403   7.1867   7.2120   7.3956   7.5512   7.6570   7.6823   7.7710
     7.7965   7.8430   7.8918   8.0507   8.1174   8.1312   8.2706   8.2869
     8.3370   8.3724   8.5590   8.5978   8.8381   8.9406   9.0306   9.1943
     9.3079   9.4374   9.4781   9.5320   9.5765   9.6019   9.6407   9.6988
     9.7449   9.7872   9.9131   9.9695  10.0063  10.0267  10.1331  10.1436
    10.1599  10.1942  10.2581  10.2865  10.3096  10.3715  10.3875  10.4869
    10.5012  10.5484  10.5913  10.6650  10.6781  10.6924  10.7214  10.7560
    10.7958  10.8077  10.8500  10.9159  10.9771  10.9949  11.0053  11.0383
    11.0564  11.0946  11.1242  11.1494  11.2453  11.2844  11.3050  11.3859
    11.4476  11.4928  11.5480  11.5659  11.6530  11.6623  11.7361  11.8883
    11.9592  11.9759  12.0824  12.1018  12.2713  12.4116  12.4925  12.5883
    14.3910  14.4243  14.4616  14.5741  14.6865  14.7154  14.8390  14.9398
    15.0255  15.0463  15.1269  15.2691  15.4237  15.5824  15.5860  15.6423
    15.7231  15.7732  15.9016  16.0278  16.0666  16.1558  16.2235  16.2532
    16.3072  16.4292  16.4887  16.6003  16.6456  16.6875  16.7441  17.0097
    17.0651  17.1142  17.1291  17.1682  17.1904  17.2175  17.2372  17.2488
    17.3068  17.3376  17.3772  17.3947  17.4251  17.4624  17.5208  17.5380

     the Fermi energy is    14.9845 ev

!    total energy              =   -4480.66132264 Ry
     total all-electron energy =    -38603.273908 Ry
     estimated scf accuracy    <          4.5E-09 Ry
     smearing contrib. (-TS)   =      -0.00368682 Ry
     internal energy E=F+TS    =   -4480.65763582 Ry

     The total energy is F=E-TS. E is the sum of the following terms:
     one-electron contribution =    -808.60103465 Ry
     hartree contribution      =     666.57093004 Ry
     xc contribution           =    -529.43494676 Ry
     ewald contribution        =   -1954.17685050 Ry
     one-center paw contrib.   =   -1855.01573395 Ry

     convergence has been achieved in  23 iterations

     Forces acting on atoms (cartesian axes, Ry/au):

     atom    1 type  1   force =    -0.00048624   -0.00042867    0.00000464
     atom    2 type  2   force =     0.00052720   -0.00028279   -0.00094653
     atom    3 type  1   force =    -0.00022040    0.00019728   -0.00012089
     atom    4 type  2   force =    -0.00006270    0.00008771    0.00049063
     atom    5 type  3   force =     0.00091311    0.00019801   -0.00082160
     atom    6 type  2   force =     0.00011404    0.00028145   -0.00078174
     atom    7 type  3   force =    -0.00003917   -0.00055380   -0.00054903
     atom    8 type  2   force =     0.00018130    0.00014214   -0.00009634
     atom    9 type  1   force =     0.00041721    0.00049400   -0.00072220
     atom   10 type  2   force =    -0.00007176    0.00010977   -0.00039103
     atom   11 type  3   force =     0.00024535   -0.00009453   -0.00034890
     atom   12 type  2   force =     0.00004865    0.00018989   -0.00024462
     atom   13 type  3   force =    -0.00035342   -0.00012779   -0.00014358
     atom   14 type  2   force =     0.00036052    0.00037942   -0.00023766
     atom   15 type  1   force =     0.00001342    0.00015937    0.00008049
     atom   16 type  2   force =    -0.00004598    0.00009380   -0.00002382
     atom   17 type  1   force =     0.00037455   -0.00007603   -0.00073935
     atom   18 type  2   force =     0.00045826   -0.00024625   -0.00087635
     atom   19 type  1   force =    -0.00048300    0.00028481   -0.00013608
     atom   20 type  2   force =    -0.00002243    0.00010318    0.00099815
     atom   21 type  1   force =    -0.00056054    0.00009956   -0.00064972
     atom   22 type  2   force =     0.00035928   -0.00005081   -0.00077077
     atom   23 type  3   force =    -0.00011444    0.00010441    0.00024553
     atom   24 type  2   force =    -0.00012952   -0.00002352    0.00006614
     atom   25 type  3   force =     0.00057691    0.00018823   -0.00017105
     atom   26 type  2   force =    -0.00034404    0.00032948   -0.00004248
     atom   27 type  3   force =    -0.00020217    0.00040234    0.00017255
     atom   28 type  2   force =     0.00024417   -0.00011166    0.00011827
     atom   29 type  3   force =    -0.00050270    0.00026313   -0.00044174
     atom   30 type  2   force =    -0.00123726   -0.00008440   -0.00044833
     atom   31 type  1   force =     0.00034820    0.00063467    0.00068270
     atom   32 type  2   force =     0.00076002    0.00047529    0.00033807
     atom   33 type  1   force =     0.00077144   -0.00063065   -0.00132758
     atom   34 type  2   force =     0.00035073   -0.00001428    0.00020342
     atom   35 type  1   force =     0.00025979    0.00046517   -0.00022151
     atom   36 type  2   force =    -0.00011320    0.00024935    0.00083114
     atom   37 type  1   force =    -0.00007228    0.00004971    0.00058880
     atom   38 type  2   force =    -0.00007925    0.00002383   -0.00097128
     atom   39 type  3   force =    -0.00007037   -0.00041850    0.00046886
     atom   40 type  2   force =    -0.00023961   -0.00078258   -0.00024172
     atom   41 type  3   force =    -0.00003841    0.00067615   -0.00012968
     atom   42 type  2   force =     0.00007697    0.00048993    0.00108207
     atom   43 type  3   force =    -0.00010949   -0.00029460    0.00003794
     atom   44 type  2   force =     0.00005930    0.00091532    0.00008737
     atom   45 type  3   force =     0.00045217   -0.00034762    0.00066255
     atom   46 type  2   force =     0.00017002   -0.00036149   -0.00073473
     atom   47 type  1   force =     0.00022677    0.00012899    0.00060630
     atom   48 type  2   force =     0.00019709   -0.00004260   -0.00036382
     atom   49 type  3   force =     0.00004497   -0.00007851    0.00031167
     atom   50 type  2   force =     0.00018676   -0.00049772   -0.00048204
     atom   51 type  1   force =     0.00015995   -0.00102987    0.00018768
     atom   52 type  2   force =    -0.00019272   -0.00014138    0.00041572
     atom   53 type  1   force =     0.00004607    0.00002593    0.00075024
     atom   54 type  2   force =    -0.00041365   -0.00022908    0.00021987
     atom   55 type  1   force =    -0.00045445   -0.00051532   -0.00012599
     atom   56 type  2   force =    -0.00055348   -0.00011378    0.00032249
     atom   57 type  3   force =    -0.00112239   -0.00055099    0.00030567
     atom   58 type  2   force =    -0.00016955   -0.00007949    0.00145967
     atom   59 type  3   force =     0.00007152   -0.00034941    0.00046175
     atom   60 type  2   force =    -0.00041308   -0.00073981    0.00025236
     atom   61 type  1   force =    -0.00052569    0.00035521    0.00038767
     atom   62 type  2   force =     0.00002162   -0.00049583    0.00039573
     atom   63 type  3   force =     0.00054200    0.00087962    0.00073158
     atom   64 type  2   force =    -0.00013595    0.00031656    0.00033440

     Total force =     0.006282     Total SCF correction =     0.000137


     Computing stress (Cartesian axis) and pressure

          total   stress  (Ry/bohr**3)                   (kbar)     P=       45.23
   0.00028033   0.00004244  -0.00003249           41.24        6.24       -4.78
   0.00004244   0.00026611  -0.00004497            6.24       39.15       -6.62
  -0.00003249  -0.00004497   0.00037587           -4.78       -6.62       55.29


     Writing all to output data dir ../output/scf_sqs_all_x/tmp_x05/TiAlN_x05_scf.save/
 
     init_run     :      3.02s CPU      3.16s WALL (       1 calls)
     electrons    :    158.92s CPU    162.42s WALL (       1 calls)
     forces       :      1.70s CPU      1.75s WALL (       1 calls)
     stress       :     16.32s CPU     16.46s WALL (       1 calls)

     Called by init_run:
     wfcinit      :      2.58s CPU      2.67s WALL (       1 calls)
     potinit      :      0.21s CPU      0.22s WALL (       1 calls)
     hinit0       :      0.12s CPU      0.13s WALL (       1 calls)

     Called by electrons:
     c_bands      :    135.45s CPU    137.96s WALL (      23 calls)
     sum_band     :     16.50s CPU     16.99s WALL (      23 calls)
     v_of_rho     :      0.85s CPU      0.87s WALL (      24 calls)
     newd         :      1.39s CPU      1.68s WALL (      24 calls)
     PAW_pot      :      3.82s CPU      3.89s WALL (      24 calls)
     mix_rho      :      1.09s CPU      1.18s WALL (      23 calls)

     Called by c_bands:
     init_us_2    :      1.93s CPU      1.96s WALL (      98 calls)
     init_us_2:cp :      1.93s CPU      1.96s WALL (      98 calls)
     cegterg      :    123.28s CPU    125.69s WALL (      46 calls)

     Called by *egterg:
     cdiaghg      :     11.45s CPU     11.64s WALL (     209 calls)
     h_psi        :     63.18s CPU     64.11s WALL (     211 calls)
     s_psi        :     16.15s CPU     16.28s WALL (     211 calls)
     g_psi        :      0.29s CPU      0.29s WALL (     163 calls)

     Called by h_psi:
     h_psi:calbec :     15.73s CPU     15.86s WALL (     211 calls)
     vloc_psi     :     30.54s CPU     31.01s WALL (     211 calls)
     add_vuspsi   :     16.31s CPU     16.46s WALL (     211 calls)

     General routines
     calbec       :     23.27s CPU     23.47s WALL (     267 calls)
     fft          :      0.39s CPU      0.41s WALL (     289 calls)
     ffts         :      0.54s CPU      0.55s WALL (     483 calls)
     fftw         :     31.23s CPU     31.72s WALL (   66238 calls)
 
     Parallel routines
 
     PWSCF        :   3m 0.41s CPU   3m 5.66s WALL

 
   This run was terminated on:   4: 3:21  11May2026            

=------------------------------------------------------------------------------=
   JOB DONE.
=------------------------------------------------------------------------------=
