
     Program PWSCF v.7.1 starts on 11May2026 at  4: 0:15 

     This program is part of the open-source Quantum ESPRESSO suite
     for quantum simulation of materials; please cite
         "P. Giannozzi et al., J. Phys.:Condens. Matter 21 395502 (2009);
         "P. Giannozzi et al., J. Phys.:Condens. Matter 29 465901 (2017);
         "P. Giannozzi et al., J. Chem. Phys. 152 154105 (2020);
          URL http://www.quantum-espresso.org", 
     in publications or presentations arising from this work. More details at
     http://www.quantum-espresso.org/quote

     Parallel version (MPI & OpenMP), running on      32 processor cores
     Number of MPI processes:                32
     Threads/MPI process:                     1

     MPI processes distributed on     1 nodes
     381421 MiB available memory on the printing compute node when the environment starts
 
     Reading input from scf_sqs_x075.in

     Current dimensions of program PWSCF are:
     Max number of different atomic species (ntypx) = 10
     Max number of k-points (npk) = 150000
     Max angular momentum in pseudopotentials (lmaxx) =  4
     file Al.pbe-n-kjpaw_psl.1.0.0.UPF: wavefunction(s)  3S 3P renormalized
     file N.pbe-n-kjpaw_psl.1.0.0.UPF: wavefunction(s)  2S renormalized
     file Ti.pbe-spn-kjpaw_psl.1.0.0.UPF: wavefunction(s)  3S 3P 3D renormalized
 
     K-points division:     npool     =       4
     R & G space division:  proc/nbgrp/npool/nimage =       8
     Subspace diagonalization in iterative solution of the eigenvalue problem:
     one sub-group per band group will be used
     scalapack distributed-memory algorithm (size of sub-group:  2*  2 procs)

 
     Parallelization info
     --------------------
     sticks:   dense  smooth     PW     G-vecs:    dense   smooth      PW
     Min         577     577    157                29435    29435    4205
     Max         578     578    159                29438    29438    4206
     Sum        4621    4621   1265               235497   235497   33641
 
     Using Slab Decomposition
 


     bravais-lattice index     =            0
     lattice parameter (alat)  =      15.5430  a.u.
     unit-cell volume          =    3754.9514 (a.u.)^3
     number of atoms/cell      =           64
     number of atomic types    =            3
     number of electrons       =       328.00
     number of Kohn-Sham states=          197
     kinetic-energy cutoff     =      60.0000  Ry
     charge density cutoff     =     240.0000  Ry
     scf convergence threshold =      1.0E-08
     mixing beta               =       0.2000
     number of iterations used =            8  local-TF  mixing
     Exchange-correlation= SLA  PW   PBX  PBC
                           (   1   4   3   4   0   0   0)

     celldm(1)=  15.542997  celldm(2)=   0.000000  celldm(3)=   0.000000
     celldm(4)=   0.000000  celldm(5)=   0.000000  celldm(6)=   0.000000

     crystal axes: (cart. coord. in units of alat)
               a(1) = (   1.000000   0.000000   0.000000 )  
               a(2) = (   0.000000   1.000000   0.000000 )  
               a(3) = (   0.000000   0.000000   1.000000 )  

     reciprocal axes: (cart. coord. in units 2 pi/alat)
               b(1) = (  1.000000  0.000000  0.000000 )  
               b(2) = (  0.000000  1.000000  0.000000 )  
               b(3) = (  0.000000  0.000000  1.000000 )  


     PseudoPot. # 1 for Al read from file:
     ../../pseudo/Al.pbe-n-kjpaw_psl.1.0.0.UPF
     MD5 check sum: 502b6b27b9c6270cab5dd1084b96fa6d
     Pseudo is Projector augmented-wave + core cor, Zval =  3.0
     Generated using &quot;atomic&quot; code by A. Dal Corso  v.6.3
     Shape of augmentation charge: PSQ
     Using radial grid of 1135 points,  6 beta functions with: 
                l(1) =   0
                l(2) =   0
                l(3) =   1
                l(4) =   1
                l(5) =   2
                l(6) =   2
     Q(r) pseudized with 0 coefficients 


     PseudoPot. # 2 for N  read from file:
     ../../pseudo/N.pbe-n-kjpaw_psl.1.0.0.UPF
     MD5 check sum: 14c48229446f9f2d411169a3abcbc3fa
     Pseudo is Projector augmented-wave + core cor, Zval =  5.0
     Generated using &quot;atomic&quot; code by A. Dal Corso  v.6.3
     Shape of augmentation charge: PSQ
     Using radial grid of 1085 points,  4 beta functions with: 
                l(1) =   0
                l(2) =   0
                l(3) =   1
                l(4) =   1
     Q(r) pseudized with 0 coefficients 


     PseudoPot. # 3 for Ti read from file:
     ../../pseudo/Ti.pbe-spn-kjpaw_psl.1.0.0.UPF
     MD5 check sum: 01f69b0d8ba4438b2e03ac6ea4af1c0b
     Pseudo is Projector augmented-wave + core cor, Zval = 12.0
     Generated using &quot;atomic&quot; code by A. Dal Corso  v.6.2.2
     Shape of augmentation charge: PSQ
     Using radial grid of 1177 points,  6 beta functions with: 
                l(1) =   0
                l(2) =   0
                l(3) =   1
                l(4) =   1
                l(5) =   2
                l(6) =   2
     Q(r) pseudized with 0 coefficients 


     atomic species   valence    mass     pseudopotential
        Al             3.00    26.98200     Al( 1.00)
        N              5.00    14.00700     N ( 1.00)
        Ti            12.00    47.86700     Ti( 1.00)

     No symmetry found



   Cartesian axes

     site n.     atom                  positions (alat units)
         1           Al  tau(   1) = (   0.0002409   0.0015793  -0.0009813  )
         2           N   tau(   2) = (   0.2485823  -0.0012936   0.0000985  )
         3           Al  tau(   3) = (   0.0008530   0.2486094   0.2491255  )
         4           N   tau(   4) = (   0.2506818   0.2486359   0.2450216  )
         5           Al  tau(   5) = (   0.2502923  -0.0007739   0.2495916  )
         6           N   tau(   6) = (   0.0014415   0.0050105   0.2498864  )
         7           Al  tau(   7) = (   0.2491280   0.2489327   0.0001029  )
         8           N   tau(   8) = (   0.0003368   0.2489462   0.0000315  )
         9           Al  tau(   9) = (  -0.0003243   0.0029232   0.5013747  )
        10           N   tau(  10) = (   0.2478484  -0.0052193   0.5000308  )
        11           Al  tau(  11) = (  -0.0004124   0.2485705   0.7512707  )
        12           N   tau(  12) = (   0.2482408   0.2472455   0.7552548  )
        13           Al  tau(  13) = (   0.2500593  -0.0024741   0.7504838  )
        14           N   tau(  14) = (   0.0019032   0.0017769   0.7505631  )
        15           Ti  tau(  15) = (   0.2576051   0.2563334   0.5009826  )
        16           N   tau(  16) = (   0.0011180   0.2503963   0.5005998  )
        17           Al  tau(  17) = (  -0.0000811   0.4975065  -0.0035684  )
        18           N   tau(  18) = (   0.2432589   0.5013515   0.0004152  )
        19           Ti  tau(  19) = (  -0.0054046   0.7448052   0.2514676  )
        20           N   tau(  20) = (   0.2538421   0.7510027   0.2488485  )
        21           Al  tau(  21) = (   0.2514739   0.5009917   0.2468329  )
        22           N   tau(  22) = (   0.0083149   0.4928254   0.2492202  )
        23           Al  tau(  23) = (   0.2487367   0.7516174  -0.0002521  )
        24           N   tau(  24) = (  -0.0001278   0.7506972  -0.0030183  )
        25           Al  tau(  25) = (   0.0038567   0.5001262   0.5041552  )
        26           N   tau(  26) = (   0.2426462   0.5078107   0.4992304  )
        27           Al  tau(  27) = (   0.0003236   0.7508683   0.7500067  )
        28           N   tau(  28) = (   0.2443767   0.7498372   0.7508426  )
        29           Al  tau(  29) = (   0.2446897   0.5004350   0.7528837  )
        30           N   tau(  30) = (   0.0061898   0.4974629   0.7505020  )
        31           Al  tau(  31) = (   0.2507655   0.7514145   0.5000760  )
        32           N   tau(  32) = (   0.0009703   0.7528237   0.5031525  )
        33           Al  tau(  33) = (   0.5000607  -0.0006824  -0.0004782  )
        34           N   tau(  34) = (   0.7516181  -0.0013696   0.0004788  )
        35           Al  tau(  35) = (   0.4991754   0.2473039   0.2442419  )
        36           N   tau(  36) = (   0.7492803   0.2424110   0.2425115  )
        37           Al  tau(  37) = (   0.7484055   0.0019074   0.2505233  )
        38           N   tau(  38) = (   0.4977914   0.0023107   0.2496260  )
        39           Al  tau(  39) = (   0.7519198   0.2464643   0.0000356  )
        40           N   tau(  40) = (   0.4999947   0.2421744   0.0009014  )
        41           Al  tau(  41) = (   0.5009172  -0.0022982   0.5000755  )
        42           N   tau(  42) = (   0.7525818  -0.0045772   0.4998761  )
        43           Al  tau(  43) = (   0.4988962   0.2428899   0.7556264  )
        44           N   tau(  44) = (   0.7500542   0.2416410   0.7582718  )
        45           Al  tau(  45) = (   0.7503824   0.0008653   0.7497647  )
        46           N   tau(  46) = (   0.4982152   0.0039180   0.7497333  )
        47           Ti  tau(  47) = (   0.7435500   0.2626874   0.5013746  )
        48           N   tau(  48) = (   0.4994898   0.2382816   0.4977542  )
        49           Ti  tau(  49) = (   0.5062796   0.5039979  -0.0090352  )
        50           N   tau(  50) = (   0.7582664   0.5025989   0.0015894  )
        51           Al  tau(  51) = (   0.4985238   0.7528029   0.2502860  )
        52           N   tau(  52) = (   0.7431774   0.7594991   0.2479216  )
        53           Ti  tau(  53) = (   0.7472655   0.4990904   0.2585185  )
        54           N   tau(  54) = (   0.4917215   0.4966615   0.2471323  )
        55           Al  tau(  55) = (   0.7516657   0.7541381  -0.0008089  )
        56           N   tau(  56) = (   0.4998577   0.7576674   0.0058875  )
        57           Ti  tau(  57) = (   0.5079525   0.4965699   0.5067818  )
        58           N   tau(  58) = (   0.7652483   0.5172346   0.4993602  )
        59           Ti  tau(  59) = (   0.5051903   0.7365011   0.7478951  )
        60           N   tau(  60) = (   0.7576065   0.7601933   0.7518272  )
        61           Ti  tau(  61) = (   0.7388029   0.5009389   0.7434431  )
        62           N   tau(  62) = (   0.4835005   0.4823496   0.7510091  )
        63           Al  tau(  63) = (   0.7505162   0.7566749   0.5010381  )
        64           N   tau(  64) = (   0.5006665   0.7583787   0.4926055  )

     number of k points=     8  Gaussian smearing, width (Ry)=  0.0050
                       cart. coord. in units 2pi/alat
        k(    1) = (   0.0000000   0.0000000   0.0000000), wk =   0.2500000
        k(    2) = (   0.0000000   0.0000000  -0.5000000), wk =   0.2500000
        k(    3) = (   0.0000000  -0.5000000  -0.5000000), wk =   0.2500000
        k(    4) = (  -0.5000000  -0.5000000  -0.5000000), wk =   0.2500000
        k(    5) = (  -0.5000000   0.0000000   0.0000000), wk =   0.2500000
        k(    6) = (   0.0000000  -0.5000000   0.0000000), wk =   0.2500000
        k(    7) = (  -0.5000000   0.0000000   0.5000000), wk =   0.2500000
        k(    8) = (  -0.5000000   0.5000000   0.0000000), wk =   0.2500000

     Dense  grid:   235497 G-vectors     FFT dimensions: (  80,  80,  80)

     Estimated max dynamical RAM per process >     172.84 MB

     Estimated total dynamical RAM >       5.23 GB

     Check: negative core charge=   -0.000013

     Initial potential from superposition of free atoms

     starting charge     327.9330, renormalised to     328.0000
     Starting wfcs are  304 randomized atomic wfcs
     Checking if some PAW data can be deallocated... 

     total cpu time spent up to now is        3.2 secs

     Self-consistent Calculation

     iteration #  1     ecut=    60.00 Ry     beta= 0.20
     Davidson diagonalization with overlap
     ethr =  1.00E-02,  avg # of iterations =  2.1

     total cpu time spent up to now is        8.5 secs

     total energy              =   -3328.45216529 Ry
     estimated scf accuracy    <      16.57877608 Ry

     iteration #  2     ecut=    60.00 Ry     beta= 0.20
     Davidson diagonalization with overlap
     ethr =  5.05E-03,  avg # of iterations =  1.0

     total cpu time spent up to now is       12.7 secs

     total energy              =   -3324.67787292 Ry
     estimated scf accuracy    <       9.17953417 Ry

     iteration #  3     ecut=    60.00 Ry     beta= 0.20
     Davidson diagonalization with overlap
     ethr =  2.80E-03,  avg # of iterations =  2.1

     total cpu time spent up to now is       18.4 secs

     total energy              =   -3326.58391368 Ry
     estimated scf accuracy    <       0.74271135 Ry

     iteration #  4     ecut=    60.00 Ry     beta= 0.20
     Davidson diagonalization with overlap
     ethr =  2.26E-04,  avg # of iterations =  9.4

     total cpu time spent up to now is       25.1 secs

     total energy              =   -3326.56822747 Ry
     estimated scf accuracy    <       0.37764341 Ry

     iteration #  5     ecut=    60.00 Ry     beta= 0.20
     Davidson diagonalization with overlap
     ethr =  1.15E-04,  avg # of iterations =  5.5

     total cpu time spent up to now is       30.4 secs

     total energy              =   -3326.54939395 Ry
     estimated scf accuracy    <       0.18013164 Ry

     iteration #  6     ecut=    60.00 Ry     beta= 0.20
     Davidson diagonalization with overlap
     ethr =  5.49E-05,  avg # of iterations =  7.2

     total cpu time spent up to now is       37.3 secs

     total energy              =   -3326.55564368 Ry
     estimated scf accuracy    <       0.07140452 Ry

     iteration #  7     ecut=    60.00 Ry     beta= 0.20
     Davidson diagonalization with overlap
     ethr =  2.18E-05,  avg # of iterations =  5.9

     total cpu time spent up to now is       43.1 secs

     total energy              =   -3326.55535758 Ry
     estimated scf accuracy    <       0.01385928 Ry

     iteration #  8     ecut=    60.00 Ry     beta= 0.20
     Davidson diagonalization with overlap
     ethr =  4.23E-06,  avg # of iterations = 14.2

     total cpu time spent up to now is       52.3 secs

     total energy              =   -3326.55672603 Ry
     estimated scf accuracy    <       0.01560585 Ry

     iteration #  9     ecut=    60.00 Ry     beta= 0.20
     Davidson diagonalization with overlap
     ethr =  4.23E-06,  avg # of iterations =  6.1

     total cpu time spent up to now is       59.3 secs

     total energy              =   -3326.55824892 Ry
     estimated scf accuracy    <       0.00154028 Ry

     iteration # 10     ecut=    60.00 Ry     beta= 0.20
     Davidson diagonalization with overlap
     ethr =  4.70E-07,  avg # of iterations =  4.5

     total cpu time spent up to now is       65.1 secs

     total energy              =   -3326.55834430 Ry
     estimated scf accuracy    <       0.00049732 Ry

     iteration # 11     ecut=    60.00 Ry     beta= 0.20
     Davidson diagonalization with overlap
     ethr =  1.52E-07,  avg # of iterations =  3.2

     total cpu time spent up to now is       70.3 secs

     total energy              =   -3326.55828095 Ry
     estimated scf accuracy    <       0.00028845 Ry

     iteration # 12     ecut=    60.00 Ry     beta= 0.20
     Davidson diagonalization with overlap
     ethr =  8.79E-08,  avg # of iterations =  4.8

     total cpu time spent up to now is       76.4 secs

     total energy              =   -3326.55830498 Ry
     estimated scf accuracy    <       0.00008790 Ry

     iteration # 13     ecut=    60.00 Ry     beta= 0.20
     Davidson diagonalization with overlap
     ethr =  2.68E-08,  avg # of iterations =  2.2

     total cpu time spent up to now is       82.0 secs

     total energy              =   -3326.55831714 Ry
     estimated scf accuracy    <       0.00001065 Ry

     iteration # 14     ecut=    60.00 Ry     beta= 0.20
     Davidson diagonalization with overlap
     ethr =  3.25E-09,  avg # of iterations =  4.9

     total cpu time spent up to now is       87.3 secs

     total energy              =   -3326.55831609 Ry
     estimated scf accuracy    <       0.00000521 Ry

     iteration # 15     ecut=    60.00 Ry     beta= 0.20
     Davidson diagonalization with overlap
     ethr =  1.59E-09,  avg # of iterations =  3.2

     total cpu time spent up to now is       93.4 secs

     total energy              =   -3326.55831345 Ry
     estimated scf accuracy    <       0.00000870 Ry

     iteration # 16     ecut=    60.00 Ry     beta= 0.20
     Davidson diagonalization with overlap
     ethr =  1.59E-09,  avg # of iterations =  2.9

     total cpu time spent up to now is       99.3 secs

     total energy              =   -3326.55831558 Ry
     estimated scf accuracy    <       0.00000189 Ry

     iteration # 17     ecut=    60.00 Ry     beta= 0.20
     Davidson diagonalization with overlap
     ethr =  5.76E-10,  avg # of iterations =  2.0

     total cpu time spent up to now is      104.2 secs

     total energy              =   -3326.55831568 Ry
     estimated scf accuracy    <       0.00000032 Ry

     iteration # 18     ecut=    60.00 Ry     beta= 0.20
     Davidson diagonalization with overlap
     ethr =  9.73E-11,  avg # of iterations =  4.1

     total cpu time spent up to now is      110.3 secs

     total energy              =   -3326.55831566 Ry
     estimated scf accuracy    <       0.00000019 Ry

     iteration # 19     ecut=    60.00 Ry     beta= 0.20
     Davidson diagonalization with overlap
     ethr =  5.87E-11,  avg # of iterations =  2.0

     total cpu time spent up to now is      115.6 secs

     total energy              =   -3326.55831569 Ry
     estimated scf accuracy    <       0.00000005 Ry

     iteration # 20     ecut=    60.00 Ry     beta= 0.20
     Davidson diagonalization with overlap
     ethr =  1.38E-11,  avg # of iterations =  3.5

     total cpu time spent up to now is      120.8 secs

     total energy              =   -3326.55831570 Ry
     estimated scf accuracy    <       0.00000001 Ry

     iteration # 21     ecut=    60.00 Ry     beta= 0.20
     Davidson diagonalization with overlap
     ethr =  3.17E-12,  avg # of iterations =  4.8

     total cpu time spent up to now is      126.7 secs

     End of self-consistent calculation

          k = 0.0000 0.0000 0.0000 ( 29423 PWs)   bands (ev):

   -44.2797 -44.1909 -43.7240 -43.5740 -43.5178 -43.4598 -43.1396 -43.0228
   -20.7249 -20.6113 -20.5724 -20.5477 -20.5057 -20.4807 -20.1969 -20.1422
   -20.1217 -20.0432 -19.9985 -19.9797 -19.9418 -19.9120 -19.9007 -19.8511
   -19.7545 -19.7027 -19.5259 -19.5225 -19.4329 -19.3913 -19.3281 -19.2281
    -4.8149  -3.5285  -3.4759  -3.3728  -3.2136  -3.1648  -3.0286  -2.3646
    -2.3143  -2.2825  -2.2638  -2.1680  -2.1397  -2.0802  -2.0020  -1.9490
    -1.9316  -1.8965  -1.8617  -1.7502  -1.6994  -1.5839  -1.5743  -1.3088
    -1.2758  -1.2326  -1.0992  -0.9988  -0.9734  -0.9338  -0.8868  -0.8281
     4.2565   4.3109   4.3835   4.3964   5.4674   5.4745   5.5371   5.9395
     5.9638   6.0198   6.0312   6.2759   6.2798   6.3545   6.3884   6.5046
     6.5271   6.6525   6.6748   6.7679   6.8263   6.8794   6.8886   6.9119
     6.9438   6.9860   7.0024   7.0336   7.1743   7.1926   7.3130   7.6970
     7.7328   7.8108   7.8628   8.0070   8.0299   8.0610   8.1577   8.2620
     8.2812   8.2935   8.3358   8.3628   8.3882   8.4424   8.4504   8.5106
     8.5736   8.6580   8.6603   8.8267   8.9488   8.9812   9.1762   9.5727
     9.6626   9.6969   9.7237   9.7639   9.7718   9.8760   9.8864   9.9864
     9.9914  10.0100  10.0369  10.1286  10.1497  10.3549  10.3742  10.4164
    10.5123  10.5461  10.5612  10.6088  10.6339  10.6475  10.6751  10.7166
    10.7357  10.7746  10.8329  10.8750  10.8775  10.8989  10.9414  10.9890
    11.0073  11.0338  11.0521  11.1142  11.1331  12.0658  12.1085  12.1096
    12.6909  12.8143  12.9335  13.8757  13.9180  14.0476  14.1659  14.3832
    14.4292  14.7875  15.0898  15.2532  15.4900  15.6188  15.7863  15.8258
    15.8948  15.9124  15.9945  16.1125  16.2685  16.3282  16.3968  16.4311
    16.5111  16.5912  16.6696  16.7452  16.9093  16.9553  17.0461  17.2216
    17.3011  17.5008  17.5325  17.6276  17.7289

          k = 0.0000 0.0000-0.5000 ( 29350 PWs)   bands (ev):

   -44.2797 -44.1909 -43.7240 -43.5741 -43.5177 -43.4598 -43.1396 -43.0228
   -20.7249 -20.6113 -20.5724 -20.5477 -20.5057 -20.4807 -20.1950 -20.1396
   -20.1247 -20.0347 -20.0027 -19.9852 -19.9400 -19.9126 -19.9041 -19.8531
   -19.7488 -19.7053 -19.5259 -19.5216 -19.4331 -19.3912 -19.3284 -19.2278
    -4.4866  -4.3184  -3.2093  -3.1544  -3.0851  -3.0163  -2.9424  -2.8087
    -2.7373  -2.6160  -2.2178  -2.0931  -2.0276  -1.9682  -1.9628  -1.8728
    -1.8044  -1.7659  -1.7390  -1.6761  -1.4694  -1.4038  -1.3687  -1.3584
    -1.2983  -1.2399  -1.1713  -1.1559  -1.0804  -1.0308  -0.9994  -0.9733
     4.8039   4.9312   4.9480   4.9882   5.0267   5.0789   5.2040   5.2573
     5.6727   5.7064   5.8938   5.9592   6.0039   6.0385   6.1101   6.1312
     6.1824   6.2545   6.3665   6.5084   6.8974   6.9468   7.0164   7.0727
     7.1416   7.2424   7.2714   7.3326   7.3638   7.4333   7.5032   7.5504
     7.5823   7.6140   7.6719   7.7614   7.8300   7.8417   8.4767   8.4942
     8.5388   8.6796   8.7595   8.8162   8.8875   8.9316   9.0832   9.1346
     9.1722   9.1893   9.2712   9.3567   9.4019   9.4298   9.4633   9.5008
     9.5379   9.5455   9.5676   9.5824   9.6118   9.6492   9.6955   9.7582
     9.8181   9.8331   9.9004   9.9429   9.9738  10.0157  10.0742  10.0843
    10.2023  10.2173  10.2939  10.3531  10.4025  10.4140  10.4597  10.5705
    10.6172  10.6266  10.7003  10.7680  10.8479  10.8590  10.8832  10.9383
    10.9536  10.9966  11.0516  11.0684  11.5041  11.5655  11.5810  11.6385
    12.9759  13.5774  13.6099  13.6483  14.1261  14.1961  14.2892  14.5361
    14.5755  14.7183  14.8106  15.0244  15.2246  15.3384  15.5369  15.6079
    15.6490  15.9205  16.1672  16.2886  16.3222  16.3561  16.4120  16.4708
    16.5357  16.7544  16.9143  16.9200  17.0360  17.0888  17.2113  17.3306
    17.4763  17.5228  17.7129  17.8543  17.8980

          k = 0.0000-0.5000-0.5000 ( 29520 PWs)   bands (ev):

   -44.2797 -44.1909 -43.7240 -43.5741 -43.5177 -43.4598 -43.1396 -43.0229
   -20.7249 -20.6113 -20.5724 -20.5477 -20.5057 -20.4807 -20.1951 -20.1396
   -20.1247 -20.0346 -20.0027 -19.9851 -19.9400 -19.9127 -19.9042 -19.8532
   -19.7487 -19.7055 -19.5259 -19.5215 -19.4331 -19.3912 -19.3285 -19.2278
    -4.2233  -4.0536  -3.9387  -3.7652  -2.8417  -2.8291  -2.7120  -2.6828
    -2.5789  -2.5501  -2.4833  -2.4258  -1.9494  -1.9011  -1.8658  -1.7736
    -1.7335  -1.6648  -1.6084  -1.5949  -1.5205  -1.4408  -1.3633  -1.3520
    -1.3491  -1.2790  -1.2561  -1.1704  -1.1453  -1.0897  -0.9542  -0.9359
     4.7928   4.8841   4.9423   5.0426   5.1836   5.3581   5.4723   5.6085
     5.7711   5.8359   5.9330   5.9666   6.0125   6.0497   6.0737   6.1367
     6.2047   6.2831   6.3428   6.3900   6.4080   6.4906   6.5812   6.6478
     6.7047   6.8157   6.8673   6.9819   7.0504   7.1294   7.6496   7.7410
     7.9448   8.1783   8.2255   8.3505   8.4447   8.4927   8.5058   8.5342
     8.6120   8.6241   8.6972   8.7257   8.7631   8.8342   8.8702   8.9363
     9.0075   9.0188   9.1364   9.1619   9.1919   9.2356   9.2775   9.3256
     9.4241   9.5208   9.5521   9.5960   9.7167   9.7593   9.8329   9.8644
     9.8776   9.8950  10.0011  10.0372  10.0596  10.0987  10.1908  10.2136
    10.2202  10.3297  10.4183  10.4339  10.5004  10.5145  10.5491  10.5557
    10.5752  10.5804  10.6724  10.7073  10.7803  10.7883  10.8178  10.8517
    10.9038  10.9426  10.9761  11.1708  11.4085  11.5082  11.6132  11.7457
    13.4733  13.6003  13.6350  13.9847  14.0969  14.2193  14.3617  14.4885
    14.5616  14.5814  14.8289  15.0537  15.2118  15.3151  15.4164  15.5073
    15.6105  15.8350  16.1438  16.2153  16.2394  16.3005  16.3985  16.4021
    16.5219  16.8883  16.9582  17.0906  17.1206  17.1606  17.2979  17.3748
    17.4929  17.5572  17.7108  18.1137  18.1873

          k =-0.5000-0.5000-0.5000 ( 29464 PWs)   bands (ev):

   -44.2797 -44.1909 -43.7240 -43.5741 -43.5177 -43.4598 -43.1396 -43.0229
   -20.7249 -20.6113 -20.5724 -20.5477 -20.5057 -20.4802 -20.1951 -20.1396
   -20.1247 -20.0346 -20.0027 -19.9852 -19.9408 -19.9126 -19.9042 -19.8532
   -19.7487 -19.7055 -19.5259 -19.5216 -19.4331 -19.3911 -19.3284 -19.2279
    -3.8869  -3.8590  -3.7809  -3.6555  -3.5921  -3.5288  -3.2834  -3.1209
    -2.0137  -2.0021  -1.9378  -1.9136  -1.8552  -1.8023  -1.7551  -1.7281
    -1.6095  -1.5932  -1.5845  -1.5436  -1.5182  -1.4789  -1.4530  -1.4205
    -1.3806  -1.3369  -1.3194  -1.3139  -1.2679  -1.2444  -1.1794  -1.1195
     5.2571   5.2644   5.3017   5.3125   5.3562   5.4017   5.4448   5.5040
     5.5230   5.5569   5.5769   5.5991   5.6131   5.6601   5.7611   5.8265
     5.9462   6.0712   6.2684   6.3863   6.4050   6.5479   6.7365   6.7641
     7.5144   7.5995   7.6134   7.7170   7.7565   7.7928   7.8245   7.8891
     7.9110   7.9325   7.9832   8.0355   8.1374   8.1875   8.2434   8.2610
     8.3427   8.3673   8.4441   8.5250   8.5373   8.5717   8.5879   8.6342
     8.6734   8.7090   8.7886   8.8435   8.8915   9.0678   9.1295   9.2330
     9.4567   9.5224   9.5947   9.6459   9.6685   9.7343   9.7974   9.8347
     9.8490   9.8961   9.9603   9.9972  10.0636  10.1279  10.1971  10.2146
    10.2647  10.2799  10.3842  10.4512  10.4667  10.5310  10.6141  10.6899
    10.9194  10.9390  10.9505  11.0143  11.0808  11.1169  11.1429  11.2002
    11.2469  11.3455  11.3677  11.4042  11.4152  11.4538  11.4629  11.4843
    13.5471  13.6218  13.6980  14.0123  14.0846  14.1959  14.2565  14.4940
    14.5350  14.6084  14.7177  14.8798  15.0131  15.1338  15.1990  15.3727
    15.5097  15.6526  16.0466  16.1963  16.2876  16.3280  16.3810  16.5377
    17.0205  17.0935  17.1673  17.1983  17.3174  17.3523  17.4689  17.4737
    17.6564  17.7564  17.9332  18.0383  18.1968

          k =-0.5000 0.0000 0.0000 ( 29350 PWs)   bands (ev):

   -44.2797 -44.1909 -43.7240 -43.5740 -43.5178 -43.4598 -43.1396 -43.0228
   -20.7249 -20.6113 -20.5724 -20.5477 -20.5057 -20.4802 -20.1969 -20.1422
   -20.1217 -20.0431 -19.9985 -19.9798 -19.9426 -19.9119 -19.9008 -19.8511
   -19.7545 -19.7028 -19.5259 -19.5225 -19.4328 -19.3911 -19.3280 -19.2282
    -4.4887  -4.3236  -3.2318  -3.1303  -3.0354  -2.9943  -2.9035  -2.8240
    -2.7371  -2.6924  -2.2178  -2.0651  -2.0066  -1.9767  -1.9686  -1.9289
    -1.8146  -1.7614  -1.7474  -1.7224  -1.6048  -1.4034  -1.3845  -1.3615
    -1.2923  -1.2381  -1.1019  -1.0701  -1.0536  -0.9944  -0.9853  -0.9787
     4.8584   4.8918   4.9040   4.9274   5.0106   5.0897   5.3657   5.4187
     5.6664   5.6922   5.8548   5.9370   5.9922   6.0074   6.0780   6.1809
     6.3636   6.4412   6.5349   6.6073   6.7573   6.8290   6.8839   6.9834
     7.0319   7.0768   7.1794   7.2479   7.2931   7.4088   7.4426   7.5025
     7.5701   7.6405   7.6830   7.7818   7.7993   7.9957   8.4636   8.5378
     8.5907   8.6207   8.6754   8.7166   8.7411   8.7715   8.9492   9.0597
     9.2112   9.2398   9.3007   9.3586   9.4170   9.4263   9.4315   9.4711
     9.5349   9.5510   9.5693   9.6367   9.6470   9.7577   9.7743   9.7898
     9.8457   9.8764   9.9412   9.9547  10.0238  10.0969  10.1392  10.1600
    10.1716  10.1782  10.2530  10.3091  10.3617  10.5128  10.5364  10.5557
    10.5971  10.6410  10.6805  10.8218  10.8773  10.9348  10.9539  10.9736
    10.9810  11.0187  11.0350  11.1006  11.5447  11.5540  11.5568  11.6024
    12.8440  13.2596  13.5603  13.7882  14.1693  14.2912  14.5404  14.5769
    14.7143  14.7630  14.9369  15.0373  15.1290  15.2347  15.6897  15.7288
    15.8579  15.8773  15.9681  16.1676  16.2798  16.3356  16.3956  16.4091
    16.6569  16.7622  16.7757  16.8673  17.0432  17.0765  17.2108  17.2792
    17.4747  17.5358  17.5662  17.6364  17.7413

          k = 0.0000-0.5000 0.0000 ( 29350 PWs)   bands (ev):

   -44.2797 -44.1909 -43.7240 -43.5740 -43.5178 -43.4598 -43.1396 -43.0228
   -20.7249 -20.6113 -20.5724 -20.5477 -20.5057 -20.4807 -20.1969 -20.1422
   -20.1217 -20.0433 -19.9985 -19.9796 -19.9418 -19.9120 -19.9007 -19.8511
   -19.7543 -19.7030 -19.5258 -19.5224 -19.4329 -19.3913 -19.3281 -19.2281
    -4.5210  -4.2775  -3.2525  -3.0712  -3.0496  -2.9878  -2.9237  -2.8370
    -2.8280  -2.6200  -2.1412  -2.0263  -1.9963  -1.9790  -1.9629  -1.9551
    -1.9425  -1.8687  -1.8058  -1.6370  -1.5809  -1.5193  -1.3840  -1.3165
    -1.2188  -1.1861  -1.1736  -1.0895  -1.0403  -1.0350  -0.9406  -0.8449
     4.7392   4.7554   4.9799   4.9875   5.1761   5.1869   5.2899   5.5426
     5.5668   5.6212   5.8641   6.0188   6.0435   6.0868   6.1799   6.2470
     6.2605   6.3703   6.5021   6.6974   6.7509   6.7720   6.8460   6.8704
     6.9006   6.9187   7.1939   7.3711   7.4037   7.4365   7.4838   7.5139
     7.5707   7.7221   7.7424   7.7758   7.7855   7.8570   8.4207   8.4791
     8.4938   8.5355   8.6432   8.6529   8.7506   8.8181   8.8399   8.8590
     8.9807   9.2039   9.2672   9.3231   9.3960   9.3985   9.4354   9.4672
     9.5218   9.5539   9.5650   9.5906   9.6405   9.6885   9.7111   9.7846
     9.8260   9.8494   9.9152   9.9472  10.0355  10.0795  10.1401  10.1785
    10.3150  10.3506  10.3640  10.3696  10.4318  10.5308  10.5474  10.6691
    10.7437  10.7730  10.7842  10.8154  10.8888  10.8932  11.0132  11.0380
    11.0573  11.0840  11.1051  11.1135  11.5431  11.5830  11.5982  11.6377
    12.7014  13.3406  13.4681  14.0250  14.1552  14.1829  14.2456  14.5136
    14.6348  14.6788  15.1131  15.2591  15.3849  15.5867  15.7095  15.7515
    15.8080  15.8661  15.9730  16.1537  16.1855  16.2201  16.3337  16.3780
    16.4796  16.5960  16.6815  16.8802  16.9102  16.9435  17.1174  17.2710
    17.4736  17.6285  17.7659  17.9095  17.9234

          k =-0.5000 0.0000 0.5000 ( 29520 PWs)   bands (ev):

   -44.2797 -44.1909 -43.7240 -43.5741 -43.5177 -43.4598 -43.1396 -43.0229
   -20.7249 -20.6113 -20.5724 -20.5477 -20.5057 -20.4802 -20.1951 -20.1396
   -20.1247 -20.0346 -20.0027 -19.9853 -19.9408 -19.9125 -19.9042 -19.8532
   -19.7488 -19.7053 -19.5259 -19.5216 -19.4330 -19.3910 -19.3283 -19.2279
    -4.1865  -4.0514  -3.9646  -3.8154  -2.8234  -2.7844  -2.7152  -2.6908
    -2.6514  -2.5939  -2.3966  -2.3626  -1.9289  -1.9027  -1.7746  -1.7706
    -1.7156  -1.6976  -1.6123  -1.5349  -1.5261  -1.4763  -1.4473  -1.3789
    -1.3013  -1.2959  -1.2561  -1.2214  -1.1632  -1.0886  -0.9764  -0.9529
     4.9029   4.9459   4.9840   5.0006   5.2702   5.2971   5.3867   5.4023
     5.7183   5.7871   5.8174   5.8841   5.9476   6.0653   6.1057   6.1559
     6.1747   6.2040   6.2667   6.3521   6.4677   6.5283   6.5677   6.6915
     6.7551   6.8845   6.9622   7.0271   7.1934   7.3775   7.5664   7.7124
     8.0098   8.0793   8.3958   8.4438   8.4796   8.5254   8.5705   8.6132
     8.6408   8.6551   8.7049   8.7418   8.8080   8.9726   9.0008   9.0295
     9.0730   9.0845   9.1284   9.1680   9.1979   9.2783   9.3517   9.3624
     9.4192   9.4412   9.4837   9.5115   9.6573   9.7076   9.7410   9.7697
     9.8301   9.8652   9.9277   9.9630   9.9950  10.0265  10.1648  10.1715
    10.2459  10.2832  10.3377  10.3664  10.4361  10.4587  10.5100  10.5518
    10.5781  10.5807  10.5995  10.6532  10.7312  10.8219  10.8674  10.8883
    10.8919  10.9207  10.9464  11.0032  11.5158  11.5271  11.6364  11.7252
    13.5498  13.6224  13.6853  14.0352  14.1250  14.1873  14.3223  14.5273
    14.6052  14.7121  14.7328  14.9294  15.0611  15.1988  15.2441  15.4265
    15.6256  15.7409  16.1489  16.2154  16.3523  16.3767  16.4209  16.5268
    16.7205  16.7669  16.9991  17.0810  17.1186  17.2005  17.2863  17.3793
    17.4540  17.6764  17.8279  17.9454  18.0565

          k =-0.5000 0.5000 0.0000 ( 29520 PWs)   bands (ev):

   -44.2797 -44.1909 -43.7240 -43.5740 -43.5178 -43.4598 -43.1396 -43.0229
   -20.7249 -20.6113 -20.5724 -20.5477 -20.5057 -20.4802 -20.1969 -20.1423
   -20.1217 -20.0433 -19.9985 -19.9798 -19.9426 -19.9119 -19.9008 -19.8511
   -19.7543 -19.7030 -19.5258 -19.5224 -19.4329 -19.3911 -19.3280 -19.2282
    -4.1485  -4.1210  -4.0484  -3.6336  -2.7699  -2.7696  -2.7296  -2.7053
    -2.6762  -2.6366  -2.3854  -2.3399  -2.0690  -2.0122  -1.9199  -1.7600
    -1.7197  -1.6729  -1.6462  -1.5739  -1.4656  -1.4637  -1.4148  -1.4070
    -1.3081  -1.2679  -1.2438  -1.1398  -1.0966  -0.9859  -0.9558  -0.9298
     4.7650   4.7719   5.0639   5.0804   5.1834   5.2591   5.5873   5.7355
     5.9120   5.9463   5.9949   6.0063   6.0267   6.0656   6.1083   6.1455
     6.1758   6.2109   6.2515   6.2962   6.3420   6.4044   6.5360   6.7253
     6.7752   6.7982   6.9332   6.9943   7.1591   7.2180   7.2879   7.5383
     7.8574   7.9060   8.1312   8.2846   8.4095   8.4422   8.4664   8.5153
     8.5799   8.6756   8.7205   8.7345   8.7834   8.8264   8.8422   8.9668
     8.9784   9.0035   9.0592   9.1368   9.1819   9.2527   9.2980   9.3646
     9.5024   9.5144   9.5735   9.5837   9.7189   9.7497   9.8462   9.8749
     9.9498   9.9728  10.0267  10.1022  10.1253  10.1681  10.2190  10.2415
    10.2928  10.3579  10.3888  10.4511  10.4848  10.5210  10.5480  10.5979
    10.6287  10.6507  10.6842  10.7005  10.7799  10.8487  10.8912  10.9031
    10.9471  10.9687  10.9817  11.0083  11.3492  11.5462  11.6692  11.6808
    13.2617  13.3526  13.5765  14.1482  14.1684  14.2524  14.5862  14.6140
    14.6623  14.7543  14.8453  14.9735  15.0660  15.2537  15.6132  15.6907
    15.7699  15.8352  15.8972  16.0228  16.2179  16.2796  16.2941  16.3427
    16.7690  16.8725  16.9049  17.0156  17.0720  17.1244  17.3191  17.3709
    17.6322  17.6604  17.7869  17.8340  18.0509

     the Fermi energy is    14.0479 ev

!    total energy              =   -3326.55831569 Ry
     total all-electron energy =    -28826.929862 Ry
     estimated scf accuracy    <          5.4E-09 Ry
     smearing contrib. (-TS)   =      -0.00223515 Ry
     internal energy E=F+TS    =   -3326.55608053 Ry

     The total energy is F=E-TS. E is the sum of the following terms:
     one-electron contribution =    -467.46259491 Ry
     hartree contribution      =     462.17615991 Ry
     xc contribution           =    -403.05379075 Ry
     ewald contribution        =   -1308.56553864 Ry
     one-center paw contrib.   =   -1609.65031615 Ry

     convergence has been achieved in  21 iterations

     Forces acting on atoms (cartesian axes, Ry/au):

     atom    1 type  1   force =    -0.00032215    0.00018024    0.00042107
     atom    2 type  2   force =    -0.00039246   -0.00089570    0.00006080
     atom    3 type  1   force =    -0.00001021    0.00102522    0.00013344
     atom    4 type  2   force =     0.00029606    0.00012764   -0.00000277
     atom    5 type  1   force =     0.00049622   -0.00017412   -0.00004398
     atom    6 type  2   force =     0.00016647    0.00081077    0.00062591
     atom    7 type  1   force =    -0.00065919   -0.00067210   -0.00007419
     atom    8 type  2   force =    -0.00059505    0.00010167    0.00006355
     atom    9 type  1   force =     0.00008172    0.00048254   -0.00019126
     atom   10 type  2   force =     0.00055981   -0.00029802   -0.00015652
     atom   11 type  1   force =    -0.00026849    0.00043851    0.00013176
     atom   12 type  2   force =     0.00039589   -0.00011088   -0.00013784
     atom   13 type  1   force =    -0.00015038   -0.00074185   -0.00006333
     atom   14 type  2   force =    -0.00017545    0.00022285   -0.00033693
     atom   15 type  3   force =    -0.00015284    0.00080221   -0.00004474
     atom   16 type  2   force =     0.00006633    0.00065464   -0.00010621
     atom   17 type  1   force =     0.00025946   -0.00002945   -0.00006342
     atom   18 type  2   force =    -0.00036079   -0.00053573   -0.00026302
     atom   19 type  3   force =     0.00057904    0.00020439    0.00073905
     atom   20 type  2   force =     0.00033899   -0.00046238   -0.00001938
     atom   21 type  1   force =     0.00011054   -0.00015143   -0.00019638
     atom   22 type  2   force =     0.00044849    0.00048217    0.00039408
     atom   23 type  1   force =    -0.00025613   -0.00087083   -0.00006493
     atom   24 type  2   force =    -0.00049813    0.00002863    0.00032426
     atom   25 type  1   force =    -0.00046438    0.00050534    0.00060757
     atom   26 type  2   force =    -0.00101821   -0.00012375   -0.00020353
     atom   27 type  1   force =     0.00004364   -0.00005493   -0.00036196
     atom   28 type  2   force =     0.00018001   -0.00051830   -0.00007957
     atom   29 type  1   force =    -0.00016407   -0.00054584    0.00014958
     atom   30 type  2   force =     0.00080386    0.00008903   -0.00011735
     atom   31 type  1   force =     0.00061451   -0.00071472   -0.00002810
     atom   32 type  2   force =    -0.00029224   -0.00022161   -0.00022012
     atom   33 type  1   force =    -0.00004442   -0.00041077    0.00017762
     atom   34 type  2   force =     0.00001554   -0.00021022    0.00019308
     atom   35 type  1   force =     0.00022590   -0.00056566   -0.00020269
     atom   36 type  2   force =    -0.00009803    0.00081644    0.00000365
     atom   37 type  1   force =     0.00001231    0.00059700    0.00013937
     atom   38 type  2   force =     0.00019839    0.00016930    0.00020571
     atom   39 type  1   force =    -0.00024869   -0.00009408    0.00005677
     atom   40 type  2   force =    -0.00023912   -0.00049771    0.00001061
     atom   41 type  1   force =     0.00014029   -0.00028613   -0.00030229
     atom   42 type  2   force =     0.00001931   -0.00047502   -0.00008220
     atom   43 type  1   force =     0.00009692   -0.00013065   -0.00028469
     atom   44 type  2   force =    -0.00026197    0.00020085    0.00003906
     atom   45 type  1   force =    -0.00015768    0.00008661    0.00000423
     atom   46 type  2   force =    -0.00003821    0.00065258   -0.00036161
     atom   47 type  3   force =    -0.00003658   -0.00036069    0.00009338
     atom   48 type  2   force =     0.00017818    0.00004299   -0.00009369
     atom   49 type  3   force =    -0.00040538   -0.00107196    0.00000998
     atom   50 type  2   force =     0.00029664    0.00008233    0.00050729
     atom   51 type  1   force =     0.00037721   -0.00024680    0.00020570
     atom   52 type  2   force =     0.00041116    0.00055331    0.00041897
     atom   53 type  3   force =    -0.00012103    0.00072699   -0.00010312
     atom   54 type  2   force =    -0.00043859    0.00007369   -0.00032115
     atom   55 type  1   force =    -0.00023867    0.00054676   -0.00018293
     atom   56 type  2   force =     0.00024878   -0.00107690    0.00015097
     atom   57 type  3   force =    -0.00016276    0.00081147   -0.00022918
     atom   58 type  2   force =     0.00021730    0.00023475   -0.00008327
     atom   59 type  3   force =     0.00002899    0.00056846   -0.00066444
     atom   60 type  2   force =    -0.00042147    0.00000062   -0.00023014
     atom   61 type  3   force =     0.00069466    0.00006076    0.00000832
     atom   62 type  2   force =    -0.00008787   -0.00037478   -0.00024104
     atom   63 type  1   force =    -0.00012549    0.00020071    0.00038212
     atom   64 type  2   force =     0.00030351    0.00034154   -0.00009994

     Total force =     0.005282     Total SCF correction =     0.000204


     Computing stress (Cartesian axis) and pressure

          total   stress  (Ry/bohr**3)                   (kbar)     P=       38.88
   0.00027785   0.00001683   0.00001421           40.87        2.48        2.09
   0.00001683   0.00028117  -0.00001205            2.48       41.36       -1.77
   0.00001421  -0.00001205   0.00023385            2.09       -1.77       34.40


     Writing all to output data dir ../output/scf_sqs_all_x/tmp_x075/TiAlN_x075_scf.save/
 
     init_run     :      2.57s CPU      2.71s WALL (       1 calls)
     electrons    :    120.98s CPU    123.57s WALL (       1 calls)
     forces       :      1.47s CPU      1.51s WALL (       1 calls)
     stress       :     13.02s CPU     13.13s WALL (       1 calls)

     Called by init_run:
     wfcinit      :      2.12s CPU      2.19s WALL (       1 calls)
     potinit      :      0.21s CPU      0.22s WALL (       1 calls)
     hinit0       :      0.12s CPU      0.15s WALL (       1 calls)

     Called by electrons:
     c_bands      :    102.08s CPU    103.77s WALL (      21 calls)
     sum_band     :     12.64s CPU     13.09s WALL (      21 calls)
     v_of_rho     :      0.78s CPU      0.80s WALL (      22 calls)
     newd         :      1.24s CPU      1.50s WALL (      22 calls)
     PAW_pot      :      3.45s CPU      3.52s WALL (      22 calls)
     mix_rho      :      0.98s CPU      1.05s WALL (      21 calls)

     Called by c_bands:
     init_us_2    :      1.73s CPU      1.76s WALL (      90 calls)
     init_us_2:cp :      1.73s CPU      1.76s WALL (      90 calls)
     cegterg      :     86.81s CPU     88.39s WALL (      42 calls)

     Called by *egterg:
     cdiaghg      :      7.39s CPU      7.50s WALL (     217 calls)
     h_psi        :     46.20s CPU     46.94s WALL (     219 calls)
     s_psi        :     11.59s CPU     11.69s WALL (     219 calls)
     g_psi        :      0.19s CPU      0.20s WALL (     175 calls)

     Called by h_psi:
     h_psi:calbec :     11.62s CPU     11.72s WALL (     219 calls)
     vloc_psi     :     22.58s CPU     22.95s WALL (     219 calls)
     add_vuspsi   :     11.58s CPU     11.69s WALL (     219 calls)

     General routines
     calbec       :     17.59s CPU     17.74s WALL (     271 calls)
     fft          :      0.38s CPU      0.41s WALL (     267 calls)
     ffts         :      0.48s CPU      0.49s WALL (     439 calls)
     fftw         :     23.16s CPU     23.55s WALL (   49252 calls)
 
     Parallel routines
 
     PWSCF        :   2m18.57s CPU   2m22.16s WALL

 
   This run was terminated on:   4: 2:37  11May2026            

=------------------------------------------------------------------------------=
   JOB DONE.
=------------------------------------------------------------------------------=
