
     Program PWSCF v.7.1 starts on 11May2026 at  3:51: 5 

     This program is part of the open-source Quantum ESPRESSO suite
     for quantum simulation of materials; please cite
         "P. Giannozzi et al., J. Phys.:Condens. Matter 21 395502 (2009);
         "P. Giannozzi et al., J. Phys.:Condens. Matter 29 465901 (2017);
         "P. Giannozzi et al., J. Chem. Phys. 152 154105 (2020);
          URL http://www.quantum-espresso.org", 
     in publications or presentations arising from this work. More details at
     http://www.quantum-espresso.org/quote

     Parallel version (MPI & OpenMP), running on      32 processor cores
     Number of MPI processes:                32
     Threads/MPI process:                     1

     MPI processes distributed on     1 nodes
     91116 MiB available memory on the printing compute node when the environment starts
 
     Reading input from scf_sqs_x0125.in

     Current dimensions of program PWSCF are:
     Max number of different atomic species (ntypx) = 10
     Max number of k-points (npk) = 150000
     Max angular momentum in pseudopotentials (lmaxx) =  4
     file Al.pbe-n-kjpaw_psl.1.0.0.UPF: wavefunction(s)  3S 3P renormalized
     file N.pbe-n-kjpaw_psl.1.0.0.UPF: wavefunction(s)  2S renormalized
     file Ti.pbe-spn-kjpaw_psl.1.0.0.UPF: wavefunction(s)  3S 3P 3D renormalized
 
     K-points division:     npool     =       4
     R & G space division:  proc/nbgrp/npool/nimage =       8
     Subspace diagonalization in iterative solution of the eigenvalue problem:
     one sub-group per band group will be used
     scalapack distributed-memory algorithm (size of sub-group:  2*  2 procs)

 
     Parallelization info
     --------------------
     sticks:   dense  smooth     PW     G-vecs:    dense   smooth      PW
     Min         607     607    164                31801    31801    4531
     Max         608     608    166                31804    31804    4535
     Sum        4857    4857   1321               254415   254415   36257
 
     Using Slab Decomposition
 


     bravais-lattice index     =            0
     lattice parameter (alat)  =      15.9446  a.u.
     unit-cell volume          =    4053.5726 (a.u.)^3
     number of atoms/cell      =           64
     number of atomic types    =            3
     number of electrons       =       508.00
     number of Kohn-Sham states=          305
     kinetic-energy cutoff     =      60.0000  Ry
     charge density cutoff     =     240.0000  Ry
     scf convergence threshold =      1.0E-08
     mixing beta               =       0.2000
     number of iterations used =            8  local-TF  mixing
     Exchange-correlation= SLA  PW   PBX  PBC
                           (   1   4   3   4   0   0   0)

     celldm(1)=  15.944564  celldm(2)=   0.000000  celldm(3)=   0.000000
     celldm(4)=   0.000000  celldm(5)=   0.000000  celldm(6)=   0.000000

     crystal axes: (cart. coord. in units of alat)
               a(1) = (   1.000000   0.000000   0.000000 )  
               a(2) = (   0.000000   1.000000   0.000000 )  
               a(3) = (   0.000000   0.000000   1.000000 )  

     reciprocal axes: (cart. coord. in units 2 pi/alat)
               b(1) = (  1.000000  0.000000  0.000000 )  
               b(2) = (  0.000000  1.000000  0.000000 )  
               b(3) = (  0.000000  0.000000  1.000000 )  


     PseudoPot. # 1 for Al read from file:
     ../../pseudo/Al.pbe-n-kjpaw_psl.1.0.0.UPF
     MD5 check sum: 502b6b27b9c6270cab5dd1084b96fa6d
     Pseudo is Projector augmented-wave + core cor, Zval =  3.0
     Generated using &quot;atomic&quot; code by A. Dal Corso  v.6.3
     Shape of augmentation charge: PSQ
     Using radial grid of 1135 points,  6 beta functions with: 
                l(1) =   0
                l(2) =   0
                l(3) =   1
                l(4) =   1
                l(5) =   2
                l(6) =   2
     Q(r) pseudized with 0 coefficients 


     PseudoPot. # 2 for N  read from file:
     ../../pseudo/N.pbe-n-kjpaw_psl.1.0.0.UPF
     MD5 check sum: 14c48229446f9f2d411169a3abcbc3fa
     Pseudo is Projector augmented-wave + core cor, Zval =  5.0
     Generated using &quot;atomic&quot; code by A. Dal Corso  v.6.3
     Shape of augmentation charge: PSQ
     Using radial grid of 1085 points,  4 beta functions with: 
                l(1) =   0
                l(2) =   0
                l(3) =   1
                l(4) =   1
     Q(r) pseudized with 0 coefficients 


     PseudoPot. # 3 for Ti read from file:
     ../../pseudo/Ti.pbe-spn-kjpaw_psl.1.0.0.UPF
     MD5 check sum: 01f69b0d8ba4438b2e03ac6ea4af1c0b
     Pseudo is Projector augmented-wave + core cor, Zval = 12.0
     Generated using &quot;atomic&quot; code by A. Dal Corso  v.6.2.2
     Shape of augmentation charge: PSQ
     Using radial grid of 1177 points,  6 beta functions with: 
                l(1) =   0
                l(2) =   0
                l(3) =   1
                l(4) =   1
                l(5) =   2
                l(6) =   2
     Q(r) pseudized with 0 coefficients 


     atomic species   valence    mass     pseudopotential
        Al             3.00    26.98200     Al( 1.00)
        N              5.00    14.00700     N ( 1.00)
        Ti            12.00    47.86700     Ti( 1.00)

     No symmetry found



   Cartesian axes

     site n.     atom                  positions (alat units)
         1           Ti  tau(   1) = (   0.0001858   0.0005171   0.0015385  )
         2           N   tau(   2) = (   0.2580880   0.0003201   0.0002940  )
         3           Ti  tau(   3) = (  -0.0019957   0.2494705   0.2481202  )
         4           N   tau(   4) = (   0.2556373   0.2500447   0.2577566  )
         5           Ti  tau(   5) = (   0.2452530  -0.0015701   0.2497062  )
         6           N   tau(   6) = (  -0.0003327   0.0009887   0.2489598  )
         7           Ti  tau(   7) = (   0.2474896   0.2514131   0.0003920  )
         8           N   tau(   8) = (   0.0010324   0.2492906  -0.0097225  )
         9           Ti  tau(   9) = (  -0.0014373  -0.0031605   0.4983173  )
        10           N   tau(  10) = (   0.2507672   0.0072672   0.4999994  )
        11           Al  tau(  11) = (   0.0033112   0.2510577   0.7458260  )
        12           N   tau(  12) = (   0.2438980   0.2501570   0.7421096  )
        13           Ti  tau(  13) = (   0.2505018  -0.0020939   0.7504393  )
        14           N   tau(  14) = (   0.0005119   0.0079312   0.7507795  )
        15           Al  tau(  15) = (   0.2499808   0.2507037   0.4999304  )
        16           N   tau(  16) = (   0.0076776   0.2502747   0.5056827  )
        17           Ti  tau(  17) = (   0.0008906   0.4995641   0.0023750  )
        18           N   tau(  18) = (   0.2503891   0.4998018  -0.0000148  )
        19           Ti  tau(  19) = (   0.0006414   0.7504778   0.2508164  )
        20           N   tau(  20) = (   0.2504373   0.7496075   0.2507561  )
        21           Ti  tau(  21) = (   0.2494649   0.5012307   0.2473217  )
        22           N   tau(  22) = (  -0.0003302   0.4990507   0.2500235  )
        23           Ti  tau(  23) = (   0.2491202   0.7487219  -0.0008011  )
        24           N   tau(  24) = (  -0.0001019   0.7508532  -0.0008643  )
        25           Ti  tau(  25) = (  -0.0010655   0.5032570   0.4976709  )
        26           N   tau(  26) = (   0.2495236   0.4935702   0.4999774  )
        27           Ti  tau(  27) = (   0.0004653   0.7502344   0.7493084  )
        28           N   tau(  28) = (   0.2488708   0.7499798   0.7491943  )
        29           Ti  tau(  29) = (   0.2533514   0.5018353   0.7528317  )
        30           N   tau(  30) = (   0.0001979   0.4925344   0.7496803  )
        31           Ti  tau(  31) = (   0.2514037   0.7512541   0.5004651  )
        32           N   tau(  32) = (   0.0005036   0.7499646   0.5006859  )
        33           Al  tau(  33) = (   0.5006427   0.0013771   0.0030230  )
        34           N   tau(  34) = (   0.7420181  -0.0009021   0.0002641  )
        35           Al  tau(  35) = (   0.4968002   0.2474161   0.2507783  )
        36           N   tau(  36) = (   0.7408542   0.2499963   0.2509535  )
        37           Ti  tau(  37) = (   0.7541607   0.0017486   0.2518878  )
        38           N   tau(  38) = (   0.4997775   0.0063548   0.2437062  )
        39           Ti  tau(  39) = (   0.7524336   0.2513148   0.0000646  )
        40           N   tau(  40) = (   0.4987480   0.2425093   0.0072609  )
        41           Ti  tau(  41) = (   0.5013373  -0.0033055   0.5015370  )
        42           N   tau(  42) = (   0.7491045   0.0001433   0.5000636  )
        43           Ti  tau(  43) = (   0.5028341   0.2518701   0.7502000  )
        44           N   tau(  44) = (   0.7598355   0.2500941   0.7488509  )
        45           Ti  tau(  45) = (   0.7498504   0.0021430   0.7481755  )
        46           N   tau(  46) = (   0.5002305   0.0014775   0.7592387  )
        47           Ti  tau(  47) = (   0.7489121   0.2486469   0.5000380  )
        48           N   tau(  48) = (   0.4917263   0.2490320   0.4938812  )
        49           Ti  tau(  49) = (   0.4993892   0.4999790  -0.0017404  )
        50           N   tau(  50) = (   0.7498464   0.5008818   0.0000772  )
        51           Ti  tau(  51) = (   0.4993960   0.7486133   0.2528900  )
        52           N   tau(  52) = (   0.7496997   0.7495766   0.2498678  )
        53           Ti  tau(  53) = (   0.7500934   0.4981061   0.2491417  )
        54           N   tau(  54) = (   0.4998430   0.4911532   0.2494811  )
        55           Ti  tau(  55) = (   0.7508139   0.7487871  -0.0004662  )
        56           N   tau(  56) = (   0.5001050   0.7584507   0.0010057  )
        57           Ti  tau(  57) = (   0.5011922   0.5031577   0.5017937  )
        58           N   tau(  58) = (   0.7505148   0.5002231   0.4999743  )
        59           Ti  tau(  59) = (   0.4994241   0.7482980   0.7471564  )
        60           N   tau(  60) = (   0.7511441   0.7497480   0.7501756  )
        61           Ti  tau(  61) = (   0.7466528   0.4974080   0.7509768  )
        62           N   tau(  62) = (   0.5001869   0.4989007   0.7506855  )
        63           Ti  tau(  63) = (   0.7485877   0.7517262   0.5002036  )
        64           N   tau(  64) = (   0.4995143   0.7505245   0.4992987  )

     number of k points=     8  Gaussian smearing, width (Ry)=  0.0050
                       cart. coord. in units 2pi/alat
        k(    1) = (   0.0000000   0.0000000   0.0000000), wk =   0.2500000
        k(    2) = (   0.0000000   0.0000000  -0.5000000), wk =   0.2500000
        k(    3) = (   0.0000000  -0.5000000  -0.5000000), wk =   0.2500000
        k(    4) = (  -0.5000000  -0.5000000  -0.5000000), wk =   0.2500000
        k(    5) = (  -0.5000000   0.0000000   0.0000000), wk =   0.2500000
        k(    6) = (   0.0000000  -0.5000000   0.0000000), wk =   0.2500000
        k(    7) = (  -0.5000000   0.0000000   0.5000000), wk =   0.2500000
        k(    8) = (  -0.5000000   0.5000000   0.0000000), wk =   0.2500000

     Dense  grid:   254415 G-vectors     FFT dimensions: (  80,  80,  80)

     Estimated max dynamical RAM per process >     248.43 MB

     Estimated total dynamical RAM >       7.58 GB

     Check: negative core charge=   -0.000031

     Initial potential from superposition of free atoms

     starting charge     507.9492, renormalised to     508.0000
     Starting wfcs are  424 randomized atomic wfcs
     Checking if some PAW data can be deallocated... 

     total cpu time spent up to now is        4.3 secs

     Self-consistent Calculation

     iteration #  1     ecut=    60.00 Ry     beta= 0.20
     Davidson diagonalization with overlap
     ethr =  1.00E-02,  avg # of iterations =  2.0

     total cpu time spent up to now is       12.8 secs

     total energy              =   -6214.31811061 Ry
     estimated scf accuracy    <      21.90549925 Ry

     iteration #  2     ecut=    60.00 Ry     beta= 0.20
     Davidson diagonalization with overlap
     ethr =  4.31E-03,  avg # of iterations =  1.0

     total cpu time spent up to now is       19.7 secs

     total energy              =   -6208.83190288 Ry
     estimated scf accuracy    <      12.55244377 Ry

     iteration #  3     ecut=    60.00 Ry     beta= 0.20
     Davidson diagonalization with overlap
     ethr =  2.47E-03,  avg # of iterations =  4.0

     total cpu time spent up to now is       29.7 secs

     total energy              =   -6211.98752977 Ry
     estimated scf accuracy    <       1.14922754 Ry

     iteration #  4     ecut=    60.00 Ry     beta= 0.20
     Davidson diagonalization with overlap
     ethr =  2.26E-04,  avg # of iterations =  3.9

     total cpu time spent up to now is       39.3 secs

     total energy              =   -6212.18710113 Ry
     estimated scf accuracy    <       0.18877006 Ry

     iteration #  5     ecut=    60.00 Ry     beta= 0.20
     Davidson diagonalization with overlap
     c_bands:  1 eigenvalues not converged
     ethr =  3.72E-05,  avg # of iterations =  8.6

     total cpu time spent up to now is       55.4 secs

     total energy              =   -6212.03544689 Ry
     estimated scf accuracy    <       0.78411611 Ry

     iteration #  6     ecut=    60.00 Ry     beta= 0.20
     Davidson diagonalization with overlap
     ethr =  3.72E-05,  avg # of iterations =  8.6

     total cpu time spent up to now is       69.9 secs

     total energy              =   -6212.17783356 Ry
     estimated scf accuracy    <       0.01187227 Ry

     iteration #  7     ecut=    60.00 Ry     beta= 0.20
     Davidson diagonalization with overlap
     c_bands:  2 eigenvalues not converged
     ethr =  2.34E-06,  avg # of iterations = 20.5

     total cpu time spent up to now is       93.7 secs

     total energy              =   -6212.17556150 Ry
     estimated scf accuracy    <       0.01150504 Ry

     iteration #  8     ecut=    60.00 Ry     beta= 0.20
     Davidson diagonalization with overlap
     ethr =  2.26E-06,  avg # of iterations =  2.8

     total cpu time spent up to now is      102.5 secs

     total energy              =   -6212.17669614 Ry
     estimated scf accuracy    <       0.00114374 Ry

     iteration #  9     ecut=    60.00 Ry     beta= 0.20
     Davidson diagonalization with overlap
     ethr =  2.25E-07,  avg # of iterations = 12.2

     total cpu time spent up to now is      118.2 secs

     total energy              =   -6212.17685087 Ry
     estimated scf accuracy    <       0.00029978 Ry

     iteration # 10     ecut=    60.00 Ry     beta= 0.20
     Davidson diagonalization with overlap
     ethr =  5.90E-08,  avg # of iterations =  4.0

     total cpu time spent up to now is      127.9 secs

     total energy              =   -6212.17688699 Ry
     estimated scf accuracy    <       0.00008458 Ry

     iteration # 11     ecut=    60.00 Ry     beta= 0.20
     Davidson diagonalization with overlap
     ethr =  1.66E-08,  avg # of iterations =  4.9

     total cpu time spent up to now is      139.0 secs

     total energy              =   -6212.17690357 Ry
     estimated scf accuracy    <       0.00011932 Ry

     iteration # 12     ecut=    60.00 Ry     beta= 0.20
     Davidson diagonalization with overlap
     ethr =  1.66E-08,  avg # of iterations =  2.0

     total cpu time spent up to now is      146.8 secs

     total energy              =   -6212.17689598 Ry
     estimated scf accuracy    <       0.00004311 Ry

     iteration # 13     ecut=    60.00 Ry     beta= 0.20
     Davidson diagonalization with overlap
     ethr =  8.49E-09,  avg # of iterations =  2.5

     total cpu time spent up to now is      155.2 secs

     total energy              =   -6212.17689867 Ry
     estimated scf accuracy    <       0.00000714 Ry

     iteration # 14     ecut=    60.00 Ry     beta= 0.20
     Davidson diagonalization with overlap
     ethr =  1.40E-09,  avg # of iterations =  4.9

     total cpu time spent up to now is      164.2 secs

     total energy              =   -6212.17689776 Ry
     estimated scf accuracy    <       0.00000357 Ry

     iteration # 15     ecut=    60.00 Ry     beta= 0.20
     Davidson diagonalization with overlap
     ethr =  7.03E-10,  avg # of iterations =  5.0

     total cpu time spent up to now is      175.3 secs

     total energy              =   -6212.17689892 Ry
     estimated scf accuracy    <       0.00000083 Ry

     iteration # 16     ecut=    60.00 Ry     beta= 0.20
     Davidson diagonalization with overlap
     ethr =  1.64E-10,  avg # of iterations =  2.0

     total cpu time spent up to now is      183.4 secs

     total energy              =   -6212.17689894 Ry
     estimated scf accuracy    <       0.00000011 Ry

     iteration # 17     ecut=    60.00 Ry     beta= 0.20
     Davidson diagonalization with overlap
     ethr =  2.20E-11,  avg # of iterations =  5.0

     total cpu time spent up to now is      195.4 secs

     total energy              =   -6212.17689896 Ry
     estimated scf accuracy    <       0.00000017 Ry

     iteration # 18     ecut=    60.00 Ry     beta= 0.20
     Davidson diagonalization with overlap
     ethr =  2.20E-11,  avg # of iterations =  4.0

     total cpu time spent up to now is      205.4 secs

     total energy              =   -6212.17689899 Ry
     estimated scf accuracy    <       0.00000001 Ry

     iteration # 19     ecut=    60.00 Ry     beta= 0.20
     Davidson diagonalization with overlap
     ethr =  2.16E-12,  avg # of iterations =  4.5

     total cpu time spent up to now is      214.7 secs

     End of self-consistent calculation

          k = 0.0000 0.0000 0.0000 ( 31799 PWs)   bands (ev):

   -41.1772 -41.1470 -41.1294 -41.1160 -41.1122 -41.1061 -41.1018 -41.0999
   -41.0928 -41.0872 -41.0818 -41.0802 -41.0773 -41.0745 -41.0687 -41.0637
   -41.0614 -41.0593 -41.0563 -41.0525 -41.0513 -41.0394 -41.0315 -41.0241
   -41.0231 -41.0092 -41.0069 -41.0015 -17.8110 -17.8015 -17.7936 -17.7779
   -17.6871 -17.6795 -17.6659 -17.6446 -17.6422 -17.6371 -17.6305 -17.6253
   -17.6185 -17.6090 -17.6020 -17.5950 -17.5854 -17.5700 -17.5606 -17.5429
   -17.5373 -17.5310 -17.5217 -17.5178 -17.5126 -17.5007 -17.4943 -17.4897
   -17.4758 -17.4611 -17.4562 -17.4557 -17.4529 -17.4364 -17.4311 -17.4244
   -17.4207 -17.4188 -17.4154 -17.4125 -17.4068 -17.4000 -17.3969 -17.3903
   -17.3874 -17.3814 -17.3709 -17.3685 -17.3615 -17.3574 -17.3390 -17.3298
   -17.3182 -17.3085 -17.3051 -17.2904 -17.2803 -17.2786 -17.2627 -17.2581
   -17.2559 -17.2545 -17.2516 -17.2497 -17.2438 -17.2377 -17.2293 -17.2268
   -17.2211 -17.2199 -17.2182 -17.2150 -17.2131 -17.2100 -17.2078 -17.2039
   -17.2031 -17.2013 -17.1993 -17.1942 -17.1846 -17.1672 -17.1570 -17.1510
    -0.7596   0.2191   0.3294   0.4549   0.5014   0.5477   0.5929   0.9120
     0.9645   0.9985   1.2298   1.2601   1.2676   1.3017   1.3152   1.3414
     1.3510   1.3622   1.3981   1.4097   1.4392   1.5110   1.5928   1.6492
     1.6731   1.7224   1.7912   1.8189   1.8763   1.9069   1.9265   1.9474
     7.9145   8.1938   8.2484   8.6858   8.9134   9.3166   9.3611   9.4749
     9.7338   9.7444   9.7547   9.7684   9.7917   9.8208   9.8326   9.8530
    10.0285  10.1294  10.1846  10.3335  10.3644  10.4180  10.5001  10.5531
    10.5691  10.6390  10.6724  10.7314  10.7694  10.8431  10.9789  11.0406
    11.0571  11.0755  11.1146  11.1294  11.1558  11.1645  11.1966  11.2035
    11.2102  11.2228  11.2478  11.2604  11.2672  11.2910  11.3207  11.3220
    11.3467  11.3730  11.4011  11.4123  11.4296  11.4691  11.4815  11.5194
    11.5380  11.5848  11.6137  11.7040  11.7136  11.7403  11.7623  11.8337
    11.8538  11.9232  11.9487  12.0699  12.1153  12.3036  12.3349  12.3741
    12.4119  12.4591  12.4888  13.0856  13.1818  13.2170  13.2961  13.3728
    13.3820  13.3951  13.4293  13.4578  13.4617  13.4909  13.5064  13.5674
    13.5679  13.5841  13.6116  13.6158  13.6523  13.7633  13.8172  13.8369
    14.7080  14.7143  14.7253  14.7655  14.7767  14.9056  14.9134  15.0344
    15.1114  16.2332  16.2418  16.3529  17.4298  17.4372  17.4865  17.5164
    17.5283  17.5433  17.5547  17.5773  17.5962  17.6138  17.6237  17.6397
    17.6590  17.6657  17.6823  17.6993  17.7234  17.8249  17.8399  17.8415
    17.8665  17.8824  17.8923  17.9272  17.9520  17.9777  17.9966  18.0688
    18.0756  18.1653  18.1862  18.2469  18.2498  18.2625  18.2834  18.2931
    18.3069  18.3130  18.3397  18.3775  18.3912  18.4057  18.4180  18.4219
    18.4321  18.4388  18.4436  18.4460  18.4539  18.4678  18.4732  18.4876
    18.4953

          k = 0.0000 0.0000-0.5000 ( 31864 PWs)   bands (ev):

   -41.1688 -41.1529 -41.1382 -41.1203 -41.1123 -41.1021 -41.0985 -41.0959
   -41.0938 -41.0892 -41.0847 -41.0814 -41.0803 -41.0674 -41.0648 -41.0633
   -41.0615 -41.0604 -41.0544 -41.0520 -41.0464 -41.0430 -41.0337 -41.0241
   -41.0233 -41.0099 -41.0066 -41.0031 -17.7428 -17.7356 -17.7321 -17.7293
   -17.7271 -17.7247 -17.7173 -17.7074 -17.6441 -17.6417 -17.6345 -17.6337
   -17.6282 -17.6185 -17.6139 -17.6114 -17.6075 -17.6015 -17.5898 -17.5774
   -17.5496 -17.5422 -17.5361 -17.5275 -17.5253 -17.5146 -17.5128 -17.5001
   -17.4949 -17.4791 -17.4706 -17.4641 -17.4569 -17.4479 -17.4293 -17.4174
   -17.4053 -17.3976 -17.3906 -17.3896 -17.3759 -17.3678 -17.3605 -17.3516
   -17.3444 -17.3379 -17.3244 -17.3192 -17.3161 -17.3131 -17.3079 -17.3039
   -17.3033 -17.3016 -17.2974 -17.2920 -17.2868 -17.2862 -17.2845 -17.2824
   -17.2792 -17.2755 -17.2627 -17.2542 -17.2516 -17.2442 -17.2391 -17.2363
   -17.2323 -17.2305 -17.2242 -17.2207 -17.2199 -17.2144 -17.2129 -17.2087
   -17.2074 -17.2053 -17.1977 -17.1927 -17.1861 -17.1834 -17.1774 -17.1708
    -0.4000  -0.3741   0.5567   0.6390   0.6782   0.7985   0.8270   0.8425
     0.8730   0.8971   0.9405   0.9612   1.1680   1.1909   1.2257   1.3123
     1.4005   1.4478   1.4931   1.5568   1.6104   1.6176   1.6356   1.6389
     1.6553   1.6679   1.6794   1.7055   1.7425   1.7607   1.8809   1.9723
     8.3795   8.4635   8.5712   8.6825   9.1772   9.2045   9.2688   9.2806
     9.5852   9.6287   9.7732   9.8080   9.9047  10.0144  10.0597  10.0942
    10.1098  10.1766  10.2228  10.2379  10.2698  10.2869  10.3007  10.3459
    10.4016  10.4219  10.4424  10.4664  10.4915  10.5071  10.8050  10.9344
    11.1012  11.1399  11.1777  11.1972  11.2298  11.2485  11.2680  11.3010
    11.3165  11.3257  11.3561  11.3753  11.3916  11.4202  11.4307  11.4509
    11.4746  11.5091  11.5658  11.5765  11.6044  11.6226  11.6564  11.6993
    11.7393  11.8748  11.8903  11.9426  12.0067  12.0128  12.0667  12.0858
    12.1452  12.1825  12.2245  12.2485  12.2557  12.3187  12.3335  12.3913
    12.4118  12.4389  12.4592  12.4705  12.5339  12.5683  12.6086  12.6261
    12.6380  12.6411  12.6732  12.6849  12.8699  12.9857  13.1440  13.2693
    13.3627  13.3644  13.3743  13.3937  14.0323  14.0360  14.0682  14.0721
    14.1243  14.1377  15.5455  15.5857  15.5935  15.6573  15.7981  15.8120
    16.0741  16.1230  16.2456  16.2550  16.3458  16.3757  16.4721  16.5425
    17.3070  17.3098  17.3248  17.3342  17.5717  17.5757  17.6336  17.6545
    17.6686  17.6823  17.6835  17.6934  17.7344  17.8044  17.8456  17.8877
    17.8916  17.9080  17.9414  17.9524  17.9698  18.0380  18.0508  18.0684
    18.0872  18.0934  18.1033  18.1241  18.1337  18.1750  18.1958  18.2239
    18.2371  18.2560  18.2678  18.2866  18.3216  18.3483  18.3739  18.3849
    18.4033  18.4237  18.4433  18.4685  18.4876  18.5003  18.5221  18.5386
    18.5606

          k = 0.0000-0.5000-0.5000 ( 31736 PWs)   bands (ev):

   -41.1664 -41.1486 -41.1348 -41.1286 -41.1235 -41.1043 -41.1007 -41.0980
   -41.0916 -41.0842 -41.0809 -41.0800 -41.0784 -41.0673 -41.0643 -41.0623
   -41.0596 -41.0570 -41.0551 -41.0530 -41.0467 -41.0434 -41.0323 -41.0271
   -41.0182 -41.0146 -41.0074 -41.0033 -17.7293 -17.7201 -17.7175 -17.7079
   -17.7067 -17.6997 -17.6901 -17.6804 -17.6642 -17.6562 -17.6525 -17.6508
   -17.6422 -17.6382 -17.6328 -17.6318 -17.6270 -17.6202 -17.6142 -17.5957
   -17.5807 -17.5777 -17.5616 -17.5326 -17.5295 -17.5129 -17.5039 -17.5003
   -17.4892 -17.4728 -17.4677 -17.4412 -17.4147 -17.4091 -17.3990 -17.3892
   -17.3861 -17.3846 -17.3779 -17.3764 -17.3718 -17.3627 -17.3553 -17.3498
   -17.3465 -17.3409 -17.3330 -17.3312 -17.3274 -17.3220 -17.3168 -17.3125
   -17.3119 -17.3094 -17.2952 -17.2944 -17.2908 -17.2835 -17.2796 -17.2747
   -17.2674 -17.2622 -17.2587 -17.2559 -17.2535 -17.2520 -17.2455 -17.2420
   -17.2401 -17.2342 -17.2312 -17.2296 -17.2265 -17.2229 -17.2219 -17.2213
   -17.2154 -17.2136 -17.2000 -17.1925 -17.1816 -17.1711 -17.1664 -17.1540
    -0.1853  -0.1329   0.1487   0.1967   0.8164   0.9129   0.9624   1.0540
     1.0778   1.1025   1.1143   1.1420   1.1667   1.1850   1.1897   1.2095
     1.2505   1.2637   1.2942   1.3074   1.3805   1.5031   1.5531   1.5927
     1.6508   1.6627   1.6749   1.7235   1.7702   1.8615   1.8837   2.0390
     8.5242   8.7125   8.8790   9.0755   9.3302   9.3689   9.4171   9.4875
     9.6222   9.6514   9.6614   9.7380   9.7759   9.8845   9.9300   9.9519
     9.9751  10.0006  10.0122  10.0871  10.1946  10.2530  10.2891  10.3164
    10.3318  10.3724  10.6464  10.6849  10.7191  10.7555  10.8062  11.0188
    11.0329  11.0577  11.1061  11.1513  11.2215  11.2478  11.3113  11.3485
    11.4012  11.4182  11.4354  11.4448  11.4937  11.5140  11.5211  11.5311
    11.6107  11.6687  11.7146  11.7282  11.7495  11.7741  11.8057  11.8901
    11.9221  11.9500  12.0004  12.0087  12.0216  12.0374  12.0664  12.1109
    12.1279  12.1397  12.1668  12.1727  12.2092  12.2201  12.2350  12.2392
    12.2648  12.2813  12.3028  12.3405  12.3883  12.3924  12.4466  12.4694
    12.4903  12.5377  12.5698  12.5984  12.6468  12.6865  12.7669  12.8713
    13.1966  13.2537  13.2763  13.2930  13.3493  13.3889  13.4273  13.5849
    15.5032  15.5768  15.6351  15.7105  15.9190  15.9543  15.9916  16.0147
    16.0741  16.1396  16.2995  16.3707  16.5263  16.5926  16.6089  16.6226
    16.7107  16.7184  16.7560  16.8019  16.8122  17.0856  17.0953  17.1680
    17.2123  17.3125  17.3573  17.4162  17.4725  17.6043  17.7934  17.8014
    17.8123  17.8205  17.8279  17.8460  17.8738  17.9203  17.9364  17.9460
    17.9902  18.0797  18.1369  18.1445  18.1889  18.2095  18.2939  18.3015
    18.3202  18.3409  18.3471  18.3859  18.3986  18.4084  18.4222  18.4804
    18.5277  18.5524  18.5652  18.5838  18.6463  18.6736  18.7178  18.7333
    18.7364

          k =-0.5000-0.5000-0.5000 ( 31816 PWs)   bands (ev):

   -41.1645 -41.1427 -41.1328 -41.1307 -41.1253 -41.1135 -41.1121 -41.1020
   -41.0901 -41.0848 -41.0806 -41.0713 -41.0689 -41.0659 -41.0624 -41.0605
   -41.0579 -41.0571 -41.0554 -41.0513 -41.0489 -41.0457 -41.0320 -41.0301
   -41.0190 -41.0147 -41.0081 -41.0039 -17.7147 -17.7093 -17.7027 -17.7010
   -17.7002 -17.6975 -17.6963 -17.6860 -17.6834 -17.6768 -17.6744 -17.6703
   -17.6666 -17.6641 -17.6492 -17.6306 -17.6231 -17.6156 -17.5967 -17.5867
   -17.5748 -17.5653 -17.5205 -17.5081 -17.4988 -17.4857 -17.4843 -17.4762
   -17.4718 -17.4597 -17.4443 -17.4328 -17.4202 -17.4112 -17.4048 -17.4040
   -17.4010 -17.3955 -17.3939 -17.3900 -17.3858 -17.3813 -17.3751 -17.3718
   -17.3673 -17.3621 -17.3281 -17.3255 -17.3224 -17.3150 -17.3132 -17.3098
   -17.3069 -17.3046 -17.3034 -17.2991 -17.2973 -17.2928 -17.2920 -17.2888
   -17.2851 -17.2844 -17.2812 -17.2782 -17.2752 -17.2732 -17.2682 -17.2644
   -17.2388 -17.2300 -17.2224 -17.2177 -17.2073 -17.2027 -17.1976 -17.1949
   -17.1922 -17.1857 -17.1810 -17.1785 -17.1701 -17.1677 -17.1649 -17.1637
    -0.0153   0.1030   0.2999   0.4715   0.5230   0.5385   0.5643   0.5782
     1.1869   1.2111   1.2478   1.2543   1.2730   1.3107   1.3238   1.3306
     1.3479   1.3584   1.3746   1.3959   1.3969   1.4058   1.4331   1.4558
     1.4627   1.5475   1.6341   1.6925   1.7768   1.8144   1.8907   1.9601
     8.7367   8.8752   9.1245   9.2856   9.3209   9.4738   9.5610   9.6037
     9.6518   9.6700   9.7339   9.8334   9.8854   9.9489   9.9624   9.9775
    10.0077  10.0174  10.0452  10.0864  10.1081  10.1628  10.2126  10.2647
    10.6535  10.7464  10.8366  10.8773  10.9247  10.9429  10.9651  10.9854
    10.9909  11.0237  11.1140  11.1273  11.2106  11.2339  11.2407  11.2850
    11.3190  11.3393  11.3771  11.3952  11.4076  11.4283  11.4500  11.4648
    11.4702  11.4790  11.5100  11.5292  11.5450  11.5570  11.6213  11.6548
    11.9494  11.9803  11.9899  12.0061  12.0197  12.0365  12.0631  12.0789
    12.1076  12.1211  12.1226  12.1522  12.1565  12.1983  12.2085  12.2469
    12.2632  12.2758  12.3138  12.3251  12.3483  12.3553  12.4013  12.4118
    12.4746  12.4996  12.5138  12.5702  12.6070  12.6294  12.6688  12.7044
    12.9632  13.1024  13.2026  13.2210  13.2361  13.2742  13.4380  13.5569
    15.9939  16.0239  16.1114  16.1172  16.1729  16.2205  16.2224  16.2457
    16.2711  16.2929  16.3036  16.3154  16.3654  16.3836  16.3939  16.4822
    16.5368  16.5441  16.6964  16.7453  16.7978  16.8556  16.9518  17.0422
    17.1529  17.1592  17.1681  17.1728  17.1924  17.1982  17.2070  17.2155
    17.2194  17.2498  17.2760  17.3050  17.3719  17.4162  17.5437  17.6415
    17.6626  17.7621  17.8474  17.8679  17.9583  18.0392  18.2569  18.4616
    18.6944  18.6992  18.7112  18.7166  18.7254  18.7259  18.7276  18.7369
    18.7431  18.7526  18.7588  18.7787  18.7925  18.8006  18.8114  18.8210
    18.8538

          k =-0.5000 0.0000 0.0000 ( 31864 PWs)   bands (ev):

   -41.1695 -41.1536 -41.1336 -41.1212 -41.1126 -41.1070 -41.1015 -41.0942
   -41.0918 -41.0911 -41.0810 -41.0784 -41.0761 -41.0719 -41.0701 -41.0642
   -41.0619 -41.0568 -41.0546 -41.0497 -41.0482 -41.0414 -41.0318 -41.0282
   -41.0230 -41.0094 -41.0069 -41.0024 -17.7562 -17.7425 -17.7355 -17.7322
   -17.7291 -17.7201 -17.7157 -17.6923 -17.6499 -17.6409 -17.6394 -17.6343
   -17.6275 -17.6173 -17.6113 -17.6088 -17.5954 -17.5885 -17.5789 -17.5642
   -17.5542 -17.5418 -17.5383 -17.5343 -17.5248 -17.5215 -17.5114 -17.5021
   -17.4870 -17.4785 -17.4700 -17.4648 -17.4563 -17.4549 -17.4490 -17.4328
   -17.4062 -17.3994 -17.3919 -17.3825 -17.3788 -17.3724 -17.3500 -17.3469
   -17.3398 -17.3336 -17.3285 -17.3215 -17.3168 -17.3136 -17.3108 -17.3077
   -17.3060 -17.3035 -17.3001 -17.2987 -17.2916 -17.2860 -17.2851 -17.2766
   -17.2711 -17.2697 -17.2608 -17.2580 -17.2509 -17.2470 -17.2391 -17.2335
   -17.2300 -17.2294 -17.2213 -17.2182 -17.2162 -17.2131 -17.2116 -17.2088
   -17.2054 -17.2003 -17.1998 -17.1949 -17.1912 -17.1835 -17.1786 -17.1723
    -0.4480  -0.3135   0.5482   0.6168   0.6606   0.7905   0.8316   0.8581
     0.9049   0.9080   0.9203   0.9714   1.1178   1.1822   1.2310   1.3145
     1.4476   1.4742   1.5282   1.5577   1.5667   1.5768   1.6149   1.6261
     1.6704   1.6803   1.6867   1.7314   1.7581   1.7663   1.8697   1.9527
     8.4003   8.4807   8.6070   8.7001   9.1067   9.1326   9.1865   9.3184
     9.5909   9.6446   9.8164   9.8692   9.8832   9.9019  10.0152  10.0667
    10.1282  10.1935  10.2355  10.2550  10.2797  10.2918  10.3109  10.3500
    10.3787  10.4084  10.4600  10.4862  10.5130  10.5353  10.8094  10.9939
    11.0917  11.1160  11.1911  11.1978  11.2074  11.2263  11.2739  11.2881
    11.3099  11.3193  11.3421  11.3798  11.3901  11.4120  11.4337  11.4598
    11.4782  11.4892  11.5066  11.5362  11.5647  11.6028  11.6992  11.7540
    11.7629  11.8571  11.9014  12.0066  12.0778  12.0849  12.1010  12.1238
    12.1471  12.1639  12.1909  12.2653  12.3255  12.3493  12.3714  12.3889
    12.4333  12.4510  12.4795  12.4955  12.5199  12.5454  12.5483  12.5858
    12.6068  12.6522  12.6646  12.7288  12.8899  12.9914  13.0450  13.2009
    13.2994  13.3144  13.3893  13.4211  14.0068  14.0338  14.0417  14.0503
    14.0862  14.2207  15.4658  15.5444  15.6354  15.6800  15.7448  15.8761
    16.1011  16.1286  16.2357  16.2894  16.3419  16.3931  16.4842  16.5599
    17.2472  17.2674  17.3762  17.3818  17.5578  17.5622  17.5828  17.6389
    17.6541  17.6738  17.6908  17.7258  17.7497  17.7679  17.8771  17.8895
    17.9162  17.9282  17.9426  17.9632  17.9748  18.0224  18.0322  18.0529
    18.0583  18.0828  18.0924  18.1062  18.1541  18.1860  18.1973  18.2167
    18.2340  18.2393  18.2735  18.2828  18.3058  18.3491  18.3621  18.3772
    18.3880  18.4260  18.4432  18.4595  18.4802  18.5103  18.5155  18.5257
    18.5487

          k = 0.0000-0.5000 0.0000 ( 31864 PWs)   bands (ev):

   -41.1724 -41.1441 -41.1417 -41.1159 -41.1154 -41.1059 -41.1028 -41.0977
   -41.0910 -41.0857 -41.0837 -41.0782 -41.0773 -41.0724 -41.0705 -41.0632
   -41.0612 -41.0582 -41.0545 -41.0534 -41.0467 -41.0417 -41.0306 -41.0270
   -41.0172 -41.0148 -41.0067 -41.0025 -17.7680 -17.7597 -17.7566 -17.7457
   -17.7206 -17.7094 -17.6887 -17.6645 -17.6573 -17.6492 -17.6370 -17.6277
   -17.6187 -17.6104 -17.6011 -17.5937 -17.5901 -17.5864 -17.5709 -17.5651
   -17.5603 -17.5472 -17.5417 -17.5382 -17.5256 -17.5231 -17.5176 -17.5166
   -17.5028 -17.4880 -17.4792 -17.4706 -17.4618 -17.4469 -17.4266 -17.4197
   -17.4178 -17.4103 -17.3905 -17.3828 -17.3764 -17.3706 -17.3517 -17.3448
   -17.3437 -17.3401 -17.3259 -17.3228 -17.3177 -17.3131 -17.3107 -17.3083
   -17.3073 -17.2994 -17.2979 -17.2945 -17.2889 -17.2852 -17.2830 -17.2759
   -17.2736 -17.2685 -17.2658 -17.2647 -17.2544 -17.2522 -17.2395 -17.2341
   -17.2260 -17.2219 -17.2203 -17.2189 -17.2159 -17.2126 -17.2116 -17.2100
   -17.2079 -17.2050 -17.2014 -17.1929 -17.1888 -17.1809 -17.1715 -17.1707
    -0.5014  -0.2088   0.3915   0.5488   0.7570   0.8406   0.8692   0.8838
     0.9032   0.9188   0.9553   0.9787   1.0947   1.1115   1.2534   1.4038
     1.4238   1.4578   1.4858   1.4913   1.5162   1.5321   1.6377   1.6504
     1.6698   1.6717   1.7225   1.7426   1.7488   1.8185   1.8831   1.9530
     8.2783   8.5330   8.6934   8.9627   9.0139   9.0900   9.1407   9.1648
     9.3475   9.6895   9.8200   9.8863   9.9364   9.9900  10.0094  10.1063
    10.1609  10.1880  10.2040  10.2287  10.2718  10.2905  10.3081  10.3512
    10.3744  10.3938  10.4648  10.5964  10.6506  10.6891  10.8331  10.9236
    11.0502  11.1389  11.1595  11.1812  11.2137  11.2329  11.2378  11.2444
    11.2682  11.2804  11.2985  11.3342  11.3382  11.3952  11.4231  11.4730
    11.4862  11.5119  11.5329  11.5578  11.6402  11.6555  11.6775  11.7168
    11.7658  11.8261  11.8708  11.9798  12.0109  12.0332  12.0899  12.1229
    12.1475  12.2041  12.2267  12.2976  12.3333  12.3716  12.3901  12.4127
    12.4479  12.4690  12.4919  12.5018  12.5264  12.5375  12.5453  12.5652
    12.5783  12.5895  12.6643  12.7843  12.8807  13.0180  13.0599  13.1497
    13.2555  13.3007  13.4581  13.4821  13.8855  14.0355  14.0509  14.0533
    14.0887  14.3412  15.3921  15.4084  15.6560  15.7995  15.8146  16.0444
    16.0594  16.1279  16.1469  16.2120  16.3638  16.4530  16.4970  16.6415
    17.1516  17.1687  17.4073  17.4248  17.4586  17.5024  17.5825  17.5947
    17.6163  17.6447  17.6719  17.7141  17.7806  17.8116  17.8165  17.8631
    17.8878  17.9306  17.9804  17.9857  18.0064  18.0079  18.0202  18.0368
    18.0473  18.0618  18.1009  18.1153  18.1472  18.1592  18.2011  18.2261
    18.2395  18.2466  18.2828  18.3122  18.3301  18.3398  18.3738  18.3818
    18.4020  18.4138  18.4298  18.4502  18.4725  18.5112  18.5226  18.5337
    18.5666

          k =-0.5000 0.0000 0.5000 ( 31736 PWs)   bands (ev):

   -41.1654 -41.1449 -41.1413 -41.1337 -41.1141 -41.1061 -41.1015 -41.0956
   -41.0944 -41.0908 -41.0800 -41.0781 -41.0716 -41.0684 -41.0637 -41.0620
   -41.0602 -41.0562 -41.0541 -41.0519 -41.0484 -41.0445 -41.0325 -41.0283
   -41.0235 -41.0101 -41.0072 -41.0033 -17.7253 -17.7200 -17.7168 -17.7096
   -17.7058 -17.7016 -17.6952 -17.6819 -17.6618 -17.6599 -17.6509 -17.6487
   -17.6449 -17.6376 -17.6362 -17.6317 -17.6260 -17.6172 -17.6107 -17.5997
   -17.5815 -17.5801 -17.5662 -17.5503 -17.5278 -17.5094 -17.4986 -17.4936
   -17.4814 -17.4724 -17.4525 -17.4211 -17.4042 -17.4025 -17.3934 -17.3890
   -17.3844 -17.3809 -17.3771 -17.3763 -17.3713 -17.3660 -17.3640 -17.3568
   -17.3547 -17.3503 -17.3419 -17.3351 -17.3303 -17.3215 -17.3198 -17.3148
   -17.3116 -17.3067 -17.3049 -17.3000 -17.2984 -17.2955 -17.2882 -17.2721
   -17.2673 -17.2639 -17.2590 -17.2578 -17.2532 -17.2489 -17.2458 -17.2422
   -17.2383 -17.2344 -17.2309 -17.2283 -17.2227 -17.2201 -17.2160 -17.2123
   -17.2101 -17.2081 -17.1990 -17.1908 -17.1868 -17.1828 -17.1576 -17.1495
    -0.1785  -0.0863   0.0672   0.1710   0.9264   0.9485   0.9685   1.0215
     1.0675   1.0828   1.1288   1.1519   1.1530   1.1860   1.1899   1.1946
     1.2373   1.2467   1.2738   1.2981   1.4281   1.5571   1.5794   1.5997
     1.6133   1.6474   1.6721   1.6928   1.7587   1.8240   1.8984   2.0491
     8.5118   8.7399   8.8752   9.1137   9.1558   9.4104   9.4270   9.4863
     9.6070   9.6959   9.7412   9.7839   9.8586   9.8734   9.9283   9.9306
    10.0096  10.0169  10.0589  10.0802  10.1870  10.2126  10.2308  10.2735
    10.3171  10.3693  10.6655  10.6833  10.7145  10.7452  10.7998  10.9387
    10.9685  11.0341  11.0887  11.1218  11.2105  11.2639  11.3699  11.3877
    11.4009  11.4293  11.4603  11.4811  11.4927  11.5199  11.5344  11.5683
    11.6341  11.6471  11.6620  11.6922  11.7377  11.7685  11.7977  11.8265
    11.9389  11.9677  11.9839  11.9999  12.0381  12.0680  12.0744  12.1168
    12.1331  12.1415  12.1542  12.1702  12.1746  12.2182  12.2330  12.2439
    12.3005  12.3185  12.3239  12.3325  12.3582  12.3896  12.4501  12.4687
    12.4894  12.5665  12.5889  12.5989  12.6563  12.7123  12.7319  12.8908
    13.1510  13.2485  13.2838  13.3148  13.3420  13.3855  13.3990  13.6245
    15.4774  15.5409  15.6449  15.6719  15.8611  15.9064  16.0313  16.0552
    16.1152  16.1700  16.2891  16.3645  16.5433  16.5993  16.6641  16.6745
    16.7125  16.7382  16.7783  16.8168  16.9045  16.9663  17.0880  17.1484
    17.1940  17.2305  17.3244  17.3973  17.4193  17.5855  17.7423  17.7579
    17.7863  17.8117  17.8445  17.8773  17.9190  17.9264  17.9467  18.0097
    18.0573  18.0751  18.0918  18.1551  18.1846  18.2411  18.2842  18.3046
    18.3199  18.3330  18.3538  18.3558  18.3980  18.4218  18.4714  18.4932
    18.5315  18.5521  18.5675  18.5904  18.6235  18.6486  18.7166  18.7186
    18.7406

          k =-0.5000 0.5000 0.0000 ( 31736 PWs)   bands (ev):

   -41.1671 -41.1472 -41.1359 -41.1285 -41.1204 -41.1104 -41.0983 -41.0956
   -41.0923 -41.0871 -41.0841 -41.0773 -41.0718 -41.0706 -41.0650 -41.0637
   -41.0600 -41.0585 -41.0535 -41.0485 -41.0477 -41.0439 -41.0317 -41.0302
   -41.0177 -41.0149 -41.0073 -41.0028 -17.7248 -17.7212 -17.7172 -17.7111
   -17.7017 -17.6979 -17.6902 -17.6824 -17.6609 -17.6573 -17.6531 -17.6491
   -17.6427 -17.6386 -17.6353 -17.6287 -17.6278 -17.6231 -17.6104 -17.6063
   -17.5870 -17.5666 -17.5504 -17.5449 -17.5376 -17.5232 -17.5117 -17.4989
   -17.4929 -17.4749 -17.4517 -17.4437 -17.4116 -17.4071 -17.3927 -17.3916
   -17.3870 -17.3816 -17.3736 -17.3675 -17.3644 -17.3595 -17.3529 -17.3497
   -17.3481 -17.3389 -17.3369 -17.3348 -17.3284 -17.3200 -17.3168 -17.3112
   -17.3102 -17.3055 -17.3023 -17.2954 -17.2932 -17.2871 -17.2769 -17.2739
   -17.2669 -17.2646 -17.2630 -17.2573 -17.2552 -17.2544 -17.2501 -17.2393
   -17.2384 -17.2368 -17.2334 -17.2292 -17.2279 -17.2241 -17.2210 -17.2143
   -17.2111 -17.2101 -17.2048 -17.1969 -17.1830 -17.1766 -17.1643 -17.1491
    -0.2311  -0.0688   0.1296   0.2143   0.8073   0.8904   0.9633   1.0279
     1.0952   1.1101   1.1269   1.1465   1.1592   1.1857   1.1900   1.2229
     1.2341   1.2385   1.2629   1.3237   1.3799   1.4695   1.5942   1.6087
     1.6515   1.6584   1.6854   1.7437   1.8377   1.8733   1.9011   1.9412
     8.6211   8.7056   8.9145   8.9917   9.3256   9.3661   9.4081   9.4806
     9.5163   9.6007   9.7154   9.7351   9.7905   9.8606   9.8644   9.9082
     9.9497  10.0126  10.0270  10.0860  10.1469  10.2366  10.2669  10.3459
    10.3914  10.4320  10.6476  10.6779  10.7316  10.8511  10.8751  10.9946
    11.0197  11.1062  11.1268  11.1338  11.1582  11.2381  11.2845  11.3615
    11.4167  11.4251  11.4358  11.4494  11.4909  11.5206  11.5296  11.5672
    11.5919  11.6366  11.6679  11.7046  11.7720  11.8157  11.8661  11.9114
    11.9511  11.9865  12.0019  12.0193  12.0323  12.0418  12.0707  12.1294
    12.1452  12.1557  12.1679  12.1840  12.1955  12.2152  12.2391  12.2591
    12.2892  12.3051  12.3240  12.3353  12.3433  12.3698  12.4224  12.4321
    12.4978  12.5481  12.5681  12.5947  12.6467  12.7046  12.7475  12.8458
    13.2446  13.2488  13.2525  13.2904  13.3175  13.3491  13.4215  13.4723
    15.5019  15.6038  15.6437  15.7069  15.8024  15.8523  16.0368  16.0550
    16.0932  16.1978  16.2176  16.3897  16.5871  16.5951  16.6128  16.6862
    16.6909  16.7054  16.7430  16.7830  16.8318  17.0597  17.0989  17.2390
    17.3069  17.3151  17.3601  17.4497  17.4969  17.6554  17.7714  17.7845
    17.8053  17.8198  17.8396  17.8517  17.8799  17.8933  17.8963  17.9025
    17.9992  18.0412  18.1337  18.1673  18.1743  18.1913  18.2197  18.2935
    18.3003  18.3425  18.3652  18.3827  18.3864  18.4095  18.4331  18.4658
    18.4767  18.5272  18.5561  18.5823  18.6192  18.6278  18.7036  18.7271
    18.7447

     the Fermi energy is    16.5389 ev

!    total energy              =   -6212.17689898 Ry
     total all-electron energy =    -53268.151042 Ry
     estimated scf accuracy    <          2.1E-09 Ry
     smearing contrib. (-TS)   =      -0.00400439 Ry
     internal energy E=F+TS    =   -6212.17289459 Ry

     The total energy is F=E-TS. E is the sum of the following terms:
     one-electron contribution =    -853.51365501 Ry
     hartree contribution      =     747.83310742 Ry
     xc contribution           =    -718.84580743 Ry
     ewald contribution        =   -3164.53629213 Ry
     one-center paw contrib.   =   -2223.11024744 Ry

     convergence has been achieved in  19 iterations

     Forces acting on atoms (cartesian axes, Ry/au):

     atom    1 type  3   force =    -0.00015590   -0.00079804   -0.00012430
     atom    2 type  2   force =     0.00050370   -0.00003050   -0.00008298
     atom    3 type  3   force =    -0.00021925    0.00015687    0.00036114
     atom    4 type  2   force =     0.00035315   -0.00000677   -0.00001187
     atom    5 type  3   force =    -0.00053662   -0.00015497   -0.00010854
     atom    6 type  2   force =    -0.00034709   -0.00017307   -0.00028727
     atom    7 type  3   force =     0.00001118    0.00040113    0.00011705
     atom    8 type  2   force =     0.00002731    0.00009229   -0.00010018
     atom    9 type  3   force =     0.00017395   -0.00069515   -0.00008631
     atom   10 type  2   force =     0.00007828    0.00009937    0.00026100
     atom   11 type  1   force =    -0.00041548    0.00012905    0.00011982
     atom   12 type  2   force =    -0.00071525    0.00014236   -0.00020106
     atom   13 type  3   force =     0.00024774   -0.00011702    0.00007368
     atom   14 type  2   force =     0.00023253    0.00047066   -0.00006415
     atom   15 type  1   force =    -0.00017726   -0.00006173   -0.00031939
     atom   16 type  2   force =     0.00003564    0.00016724    0.00044872
     atom   17 type  3   force =     0.00006309    0.00095784   -0.00028639
     atom   18 type  2   force =     0.00000271    0.00024074   -0.00023053
     atom   19 type  3   force =    -0.00071582   -0.00034381    0.00003262
     atom   20 type  2   force =    -0.00014336   -0.00012927    0.00016806
     atom   21 type  3   force =    -0.00050487    0.00006401   -0.00040865
     atom   22 type  2   force =    -0.00042600    0.00006198   -0.00049258
     atom   23 type  3   force =    -0.00033598   -0.00029782    0.00013220
     atom   24 type  2   force =    -0.00004016    0.00002095   -0.00019676
     atom   25 type  3   force =     0.00001380    0.00079250   -0.00009758
     atom   26 type  2   force =    -0.00005885   -0.00020516   -0.00004501
     atom   27 type  3   force =    -0.00029462   -0.00010555   -0.00021492
     atom   28 type  2   force =     0.00008005    0.00011929    0.00017334
     atom   29 type  3   force =     0.00065225    0.00022608    0.00023024
     atom   30 type  2   force =     0.00021241   -0.00015481   -0.00026825
     atom   31 type  3   force =     0.00002997   -0.00022215    0.00011784
     atom   32 type  2   force =    -0.00004011    0.00016395   -0.00008383
     atom   33 type  1   force =     0.00004211   -0.00044300    0.00018739
     atom   34 type  2   force =    -0.00037719   -0.00017998    0.00003231
     atom   35 type  1   force =     0.00041264   -0.00005336    0.00003845
     atom   36 type  2   force =     0.00003236   -0.00012659   -0.00022821
     atom   37 type  3   force =     0.00011230   -0.00025141    0.00007022
     atom   38 type  2   force =    -0.00020458    0.00005063   -0.00047384
     atom   39 type  3   force =    -0.00014262    0.00013429   -0.00022222
     atom   40 type  2   force =     0.00003518   -0.00072499    0.00009687
     atom   41 type  3   force =    -0.00008692   -0.00078515   -0.00005483
     atom   42 type  2   force =    -0.00003096   -0.00010761    0.00022034
     atom   43 type  3   force =     0.00027229    0.00024537   -0.00010983
     atom   44 type  2   force =     0.00048413    0.00017356    0.00002500
     atom   45 type  3   force =     0.00009387    0.00010522   -0.00021599
     atom   46 type  2   force =     0.00030253   -0.00028986    0.00068583
     atom   47 type  3   force =     0.00014887    0.00040478    0.00023123
     atom   48 type  2   force =    -0.00003480    0.00002181   -0.00034172
     atom   49 type  3   force =    -0.00007550    0.00031190    0.00010819
     atom   50 type  2   force =    -0.00004018    0.00019982   -0.00021068
     atom   51 type  3   force =     0.00033731    0.00021073    0.00034223
     atom   52 type  2   force =    -0.00029262   -0.00008002    0.00009794
     atom   53 type  3   force =     0.00007924    0.00009965    0.00021703
     atom   54 type  2   force =    -0.00025128    0.00001907    0.00016541
     atom   55 type  3   force =     0.00035325   -0.00024074    0.00014428
     atom   56 type  2   force =     0.00008783    0.00019869    0.00016611
     atom   57 type  3   force =    -0.00001924    0.00076014    0.00020702
     atom   58 type  2   force =    -0.00002756   -0.00001295   -0.00008785
     atom   59 type  3   force =     0.00064404   -0.00001492   -0.00017327
     atom   60 type  2   force =     0.00031596    0.00005964    0.00022279
     atom   61 type  3   force =    -0.00026332   -0.00001571   -0.00040608
     atom   62 type  2   force =     0.00047604    0.00015492    0.00034405
     atom   63 type  3   force =     0.00001859   -0.00063170    0.00012503
     atom   64 type  2   force =     0.00000711   -0.00000274    0.00027162

     Total force =     0.003978     Total SCF correction =     0.000118


     Computing stress (Cartesian axis) and pressure

          total   stress  (Ry/bohr**3)                   (kbar)     P=       31.87
   0.00022943  -0.00000667   0.00001927           33.75       -0.98        2.83
  -0.00000667   0.00020434  -0.00001780           -0.98       30.06       -2.62
   0.00001927  -0.00001780   0.00021611            2.83       -2.62       31.79


     Writing all to output data dir ../output/scf_sqs_all_x/tmp_x0125/TiAlN_x0125_scf.save/
 
     init_run     :      3.68s CPU      3.84s WALL (       1 calls)
     electrons    :    206.17s CPU    210.51s WALL (       1 calls)
     forces       :      2.00s CPU      2.05s WALL (       1 calls)
     stress       :     20.59s CPU     20.77s WALL (       1 calls)

     Called by init_run:
     wfcinit      :      3.23s CPU      3.34s WALL (       1 calls)
     potinit      :      0.21s CPU      0.22s WALL (       1 calls)
     hinit0       :      0.12s CPU      0.13s WALL (       1 calls)

     Called by electrons:
     c_bands      :    184.02s CPU    187.31s WALL (      19 calls)
     sum_band     :     16.43s CPU     16.94s WALL (      19 calls)
     v_of_rho     :      0.70s CPU      0.72s WALL (      20 calls)
     newd         :      1.18s CPU      1.46s WALL (      20 calls)
     PAW_pot      :      3.12s CPU      3.20s WALL (      20 calls)
     mix_rho      :      0.90s CPU      0.99s WALL (      19 calls)

     Called by c_bands:
     init_us_2    :      1.65s CPU      1.68s WALL (      82 calls)
     init_us_2:cp :      1.65s CPU      1.67s WALL (      82 calls)
     cegterg      :    164.12s CPU    167.29s WALL (      39 calls)

     Called by *egterg:
     cdiaghg      :     26.01s CPU     26.59s WALL (     250 calls)
     h_psi        :     71.08s CPU     72.17s WALL (     252 calls)
     s_psi        :     18.54s CPU     18.68s WALL (     252 calls)
     g_psi        :      0.35s CPU      0.36s WALL (     211 calls)

     Called by h_psi:
     h_psi:calbec :     17.35s CPU     17.49s WALL (     252 calls)
     vloc_psi     :     34.34s CPU     34.89s WALL (     252 calls)
     add_vuspsi   :     18.69s CPU     18.88s WALL (     252 calls)

     General routines
     calbec       :     25.34s CPU     25.54s WALL (     300 calls)
     fft          :      0.34s CPU      0.35s WALL (     245 calls)
     ffts         :      0.45s CPU      0.46s WALL (     391 calls)
     fftw         :     34.77s CPU     35.32s WALL (   73842 calls)
 
     Parallel routines
 
     PWSCF        :   3m53.03s CPU   3m59.46s WALL

 
   This run was terminated on:   3:55: 5  11May2026            

=------------------------------------------------------------------------------=
   JOB DONE.
=------------------------------------------------------------------------------=
