
     Program PWSCF v.7.1 starts on 12Apr2026 at 21:42:34 

     This program is part of the open-source Quantum ESPRESSO suite
     for quantum simulation of materials; please cite
         "P. Giannozzi et al., J. Phys.:Condens. Matter 21 395502 (2009);
         "P. Giannozzi et al., J. Phys.:Condens. Matter 29 465901 (2017);
         "P. Giannozzi et al., J. Chem. Phys. 152 154105 (2020);
          URL http://www.quantum-espresso.org", 
     in publications or presentations arising from this work. More details at
     http://www.quantum-espresso.org/quote

     Parallel version (MPI & OpenMP), running on       4 processor cores
     Number of MPI processes:                 4
     Threads/MPI process:                     1

     MPI processes distributed on     1 nodes
     92442 MiB available memory on the printing compute node when the environment starts
 
     Reading input from input/cu_test_scf.in

     Current dimensions of program PWSCF are:
     Max number of different atomic species (ntypx) = 10
     Max number of k-points (npk) = 150000
     Max angular momentum in pseudopotentials (lmaxx) =  4
     file Cu.pbe-dn-kjpaw_psl.1.0.0.UPF: wavefunction(s)  4S 3D renormalized
 
     K-points division:     npool     =       2
     R & G space division:  proc/nbgrp/npool/nimage =       2
     Subspace diagonalization in iterative solution of the eigenvalue problem:
     a serial algorithm will be used

 
     Parallelization info
     --------------------
     sticks:   dense  smooth     PW     G-vecs:    dense   smooth      PW
     Min         255     126     42                 3863     1365     267
     Max         256     127     43                 3864     1368     270
     Sum         511     253     85                 7727     2733     537
 
     Using Slab Decomposition
 


     bravais-lattice index     =            2
     lattice parameter (alat)  =       6.8300  a.u.
     unit-cell volume          =      79.6530 (a.u.)^3
     number of atoms/cell      =            1
     number of atomic types    =            1
     number of electrons       =        11.00
     number of Kohn-Sham states=           10
     kinetic-energy cutoff     =      40.0000  Ry
     charge density cutoff     =     320.0000  Ry
     scf convergence threshold =      1.0E-06
     mixing beta               =       0.7000
     number of iterations used =            8  plain     mixing
     Exchange-correlation= SLA  PW   PBX  PBC
                           (   1   4   3   4   0   0   0)

     celldm(1)=   6.830000  celldm(2)=   0.000000  celldm(3)=   0.000000
     celldm(4)=   0.000000  celldm(5)=   0.000000  celldm(6)=   0.000000

     crystal axes: (cart. coord. in units of alat)
               a(1) = (  -0.500000   0.000000   0.500000 )  
               a(2) = (   0.000000   0.500000   0.500000 )  
               a(3) = (  -0.500000   0.500000   0.000000 )  

     reciprocal axes: (cart. coord. in units 2 pi/alat)
               b(1) = ( -1.000000 -1.000000  1.000000 )  
               b(2) = (  1.000000  1.000000  1.000000 )  
               b(3) = ( -1.000000  1.000000 -1.000000 )  


     PseudoPot. # 1 for Cu read from file:
     ./pseudo/Cu.pbe-dn-kjpaw_psl.1.0.0.UPF
     MD5 check sum: cfffd1f38ee05704b3e17f46f1730a6f
     Pseudo is Projector augmented-wave + core cor, Zval = 11.0
     Generated using &quot;atomic&quot; code by A. Dal Corso  v.6.3
     Shape of augmentation charge: PSQ
     Using radial grid of 1199 points,  6 beta functions with: 
                l(1) =   0
                l(2) =   0
                l(3) =   1
                l(4) =   1
                l(5) =   2
                l(6) =   2
     Q(r) pseudized with 0 coefficients 


     atomic species   valence    mass     pseudopotential
        Cu            11.00    63.54600     Cu( 1.00)

     48 Sym. Ops., with inversion, found



   Cartesian axes

     site n.     atom                  positions (alat units)
         1           Cu  tau(   1) = (   0.0000000   0.0000000   0.0000000  )

     number of k points=    10  Gaussian smearing, width (Ry)=  0.0100
                       cart. coord. in units 2pi/alat
        k(    1) = (  -0.1250000   0.1250000   0.1250000), wk =   0.0625000
        k(    2) = (  -0.3750000   0.3750000  -0.1250000), wk =   0.1875000
        k(    3) = (   0.3750000  -0.3750000   0.6250000), wk =   0.1875000
        k(    4) = (   0.1250000  -0.1250000   0.3750000), wk =   0.1875000
        k(    5) = (  -0.1250000   0.6250000   0.1250000), wk =   0.1875000
        k(    6) = (   0.6250000  -0.1250000   0.8750000), wk =   0.3750000
        k(    7) = (   0.3750000   0.1250000   0.6250000), wk =   0.3750000
        k(    8) = (  -0.1250000  -0.8750000   0.1250000), wk =   0.1875000
        k(    9) = (  -0.3750000   0.3750000   0.3750000), wk =   0.0625000
        k(   10) = (   0.3750000  -0.3750000   1.1250000), wk =   0.1875000

     Dense  grid:     7727 G-vectors     FFT dimensions: (  27,  27,  27)

     Smooth grid:     2733 G-vectors     FFT dimensions: (  20,  20,  20)

     Estimated max dynamical RAM per process >       9.47 MB

     Estimated total dynamical RAM >      35.99 MB

     Initial potential from superposition of free atoms

     starting charge      10.9998, renormalised to      11.0000
     Starting wfcs are    9 randomized atomic wfcs +    1 random wfcs
     Checking if some PAW data can be deallocated... 

     total cpu time spent up to now is        0.5 secs

     Self-consistent Calculation

     iteration #  1     ecut=    40.00 Ry     beta= 0.70
     Davidson diagonalization with overlap
     ethr =  1.00E-02,  avg # of iterations =  3.8

     Threshold (ethr) on eigenvalues was too large:
     Diagonalizing with lowered threshold

     Davidson diagonalization with overlap
     ethr =  5.62E-04,  avg # of iterations =  1.6

     total cpu time spent up to now is        0.6 secs

     total energy              =    -213.05154172 Ry
     estimated scf accuracy    <       0.06159465 Ry

     iteration #  2     ecut=    40.00 Ry     beta= 0.70
     Davidson diagonalization with overlap
     ethr =  5.60E-04,  avg # of iterations =  2.4

     total cpu time spent up to now is        0.6 secs

     total energy              =    -213.05409464 Ry
     estimated scf accuracy    <       0.22822822 Ry

     iteration #  3     ecut=    40.00 Ry     beta= 0.70
     Davidson diagonalization with overlap
     ethr =  5.60E-04,  avg # of iterations =  2.0

     total cpu time spent up to now is        0.7 secs

     total energy              =    -213.08847691 Ry
     estimated scf accuracy    <       0.00030800 Ry

     iteration #  4     ecut=    40.00 Ry     beta= 0.70
     Davidson diagonalization with overlap
     ethr =  2.80E-06,  avg # of iterations =  2.7

     total cpu time spent up to now is        0.8 secs

     total energy              =    -213.08857886 Ry
     estimated scf accuracy    <       0.00005642 Ry

     iteration #  5     ecut=    40.00 Ry     beta= 0.70
     Davidson diagonalization with overlap
     ethr =  5.13E-07,  avg # of iterations =  1.3

     total cpu time spent up to now is        0.8 secs

     total energy              =    -213.08859088 Ry
     estimated scf accuracy    <       0.00000152 Ry

     iteration #  6     ecut=    40.00 Ry     beta= 0.70
     Davidson diagonalization with overlap
     ethr =  1.38E-08,  avg # of iterations =  2.0

     total cpu time spent up to now is        0.9 secs

     End of self-consistent calculation

          k =-0.1250 0.1250 0.1250 (   335 PWs)   bands (ev):

     3.8355   9.6046   9.8115   9.8115  10.5212  10.5212  31.5389  36.1284
    36.7315  36.7315

          k =-0.3750 0.3750-0.1250 (   339 PWs)   bands (ev):

     6.4688   9.3115   9.7597  10.0007  10.4920  11.2083  23.5554  28.9300
    36.2836  36.7410

          k = 0.3750-0.3750 0.6250 (   341 PWs)   bands (ev):

     7.8748   9.4759   9.8712  10.0386  11.1379  12.8192  17.1311  30.1698
    31.9471  33.5239

          k = 0.1250-0.1250 0.3750 (   336 PWs)   bands (ev):

     5.2520   9.2819   9.9283  10.0432  10.4272  10.7533  27.5870  32.1541
    33.5231  35.9639

          k =-0.1250 0.6250 0.1250 (   333 PWs)   bands (ev):

     7.3682   8.7933   9.8925  10.4795  11.0477  11.3051  24.6201  27.8394
    28.5873  32.2399

          k = 0.6250-0.1250 0.8750 (   343 PWs)   bands (ev):

     8.5308   8.8008   9.6003  10.5740  11.1511  16.0195  19.0577  22.4518
    24.6893  36.0098

          k = 0.3750 0.1250 0.6250 (   338 PWs)   bands (ev):

     8.0559   9.1103   9.4341  10.2688  10.8915  12.5714  20.6806  26.1500
    29.0694  36.6416

          k =-0.1250-0.8750 0.1250 (   338 PWs)   bands (ev):

     7.9967   8.4509  10.6186  10.9035  11.2099  13.9880  21.4273  22.9228
    26.5763  31.4557

          k =-0.3750 0.3750 0.3750 (   344 PWs)   bands (ev):

     7.1402   9.7521   9.7521  10.0776  10.9617  10.9617  19.5752  34.4130
    34.8903  34.8903

          k = 0.3750-0.3750 1.1250 (   343 PWs)   bands (ev):

     8.5193   9.0380   9.5514  10.2632  10.9389  14.8226  17.9370  23.6604
    30.3791  32.9957

     the Fermi energy is    12.6561 ev

!    total energy              =    -213.08859134 Ry
     total all-electron energy =     -3309.968357 Ry
     estimated scf accuracy    <          5.3E-09 Ry
     smearing contrib. (-TS)   =      -0.00084349 Ry
     internal energy E=F+TS    =    -213.08774786 Ry

     The total energy is F=E-TS. E is the sum of the following terms:
     one-electron contribution =     -28.02474721 Ry
     hartree contribution      =      30.64914245 Ry
     xc contribution           =     -44.63798567 Ry
     ewald contribution        =     -81.22522855 Ry
     one-center paw contrib.   =     -89.84892888 Ry

     convergence has been achieved in   6 iterations

     Writing all to output data dir ./output/cu_test.save/
 
     init_run     :      0.13s CPU      0.21s WALL (       1 calls)
     electrons    :      0.39s CPU      0.43s WALL (       1 calls)

     Called by init_run:
     wfcinit      :      0.01s CPU      0.01s WALL (       1 calls)
     potinit      :      0.04s CPU      0.04s WALL (       1 calls)
     hinit0       :      0.08s CPU      0.14s WALL (       1 calls)

     Called by electrons:
     c_bands      :      0.10s CPU      0.11s WALL (       7 calls)
     sum_band     :      0.05s CPU      0.06s WALL (       7 calls)
     v_of_rho     :      0.02s CPU      0.02s WALL (       7 calls)
     newd         :      0.03s CPU      0.03s WALL (       7 calls)
     PAW_pot      :      0.22s CPU      0.23s WALL (       7 calls)
     mix_rho      :      0.00s CPU      0.00s WALL (       7 calls)

     Called by c_bands:
     init_us_2    :      0.00s CPU      0.00s WALL (      75 calls)
     init_us_2:cp :      0.00s CPU      0.00s WALL (      75 calls)
     cegterg      :      0.09s CPU      0.10s WALL (      35 calls)

     Called by *egterg:
     cdiaghg      :      0.01s CPU      0.01s WALL (     113 calls)
     h_psi        :      0.07s CPU      0.08s WALL (     123 calls)
     s_psi        :      0.00s CPU      0.00s WALL (     123 calls)
     g_psi        :      0.00s CPU      0.00s WALL (      83 calls)

     Called by h_psi:
     h_psi:calbec :      0.00s CPU      0.00s WALL (     123 calls)
     vloc_psi     :      0.07s CPU      0.08s WALL (     123 calls)
     add_vuspsi   :      0.00s CPU      0.00s WALL (     123 calls)

     General routines
     calbec       :      0.00s CPU      0.00s WALL (     158 calls)
     fft          :      0.01s CPU      0.06s WALL (      90 calls)
     ffts         :      0.00s CPU      0.00s WALL (      14 calls)
     fftw         :      0.07s CPU      0.08s WALL (    2174 calls)
     interpolate  :      0.00s CPU      0.00s WALL (       7 calls)
 
     Parallel routines
 
     PWSCF        :      0.61s CPU      0.94s WALL

 
   This run was terminated on:  21:42:35  12Apr2026            

=------------------------------------------------------------------------------=
   JOB DONE.
=------------------------------------------------------------------------------=
