
     Program PWSCF v.7.1 starts on 28Apr2026 at 11:35:34 

     This program is part of the open-source Quantum ESPRESSO suite
     for quantum simulation of materials; please cite
         "P. Giannozzi et al., J. Phys.:Condens. Matter 21 395502 (2009);
         "P. Giannozzi et al., J. Phys.:Condens. Matter 29 465901 (2017);
         "P. Giannozzi et al., J. Chem. Phys. 152 154105 (2020);
          URL http://www.quantum-espresso.org", 
     in publications or presentations arising from this work. More details at
     http://www.quantum-espresso.org/quote

     Parallel version (MPI & OpenMP), running on       4 processor cores
     Number of MPI processes:                 4
     Threads/MPI process:                     1

     MPI processes distributed on     1 nodes
     381872 MiB available memory on the printing compute node when the environment starts
 
     Reading input from AlN_kpoints12.in

     Current dimensions of program PWSCF are:
     Max number of different atomic species (ntypx) = 10
     Max number of k-points (npk) = 150000
     Max angular momentum in pseudopotentials (lmaxx) =  4
     file Al.pbe-n-kjpaw_psl.1.0.0.UPF: wavefunction(s)  3S 3P renormalized
     file N.pbe-n-kjpaw_psl.1.0.0.UPF: wavefunction(s)  2S renormalized
     Message from routine setup:
     using ibrav=0 with symmetry is DISCOURAGED, use correct ibrav instead
 
     K-points division:     npool     =       2
     R & G space division:  proc/nbgrp/npool/nimage =       2
     Subspace diagonalization in iterative solution of the eigenvalue problem:
     a serial algorithm will be used

 
     Parallelization info
     --------------------
     sticks:   dense  smooth     PW     G-vecs:    dense   smooth      PW
     Min         819     819    237                21799    21799    3367
     Max         820     820    238                21800    21800    3368
     Sum        1639    1639    475                43599    43599    6735
 
     Using Slab Decomposition
 


     bravais-lattice index     =            0
     lattice parameter (alat)  =       5.4385  a.u.
     unit-cell volume          =     113.7417 (a.u.)^3
     number of atoms/cell      =            2
     number of atomic types    =            2
     number of electrons       =         8.00
     number of Kohn-Sham states=            8
     kinetic-energy cutoff     =     200.0000  Ry
     charge density cutoff     =     800.0000  Ry
     scf convergence threshold =      1.0E-08
     mixing beta               =       0.2000
     number of iterations used =            8  local-TF  mixing
     Exchange-correlation= SLA  PW   PBX  PBC
                           (   1   4   3   4   0   0   0)

     celldm(1)=   5.438489  celldm(2)=   0.000000  celldm(3)=   0.000000
     celldm(4)=   0.000000  celldm(5)=   0.000000  celldm(6)=   0.000000

     crystal axes: (cart. coord. in units of alat)
               a(1) = (  -0.707107   0.000000   0.707107 )  
               a(2) = (   0.000000   0.707107   0.707107 )  
               a(3) = (  -0.707107   0.707107   0.000000 )  

     reciprocal axes: (cart. coord. in units 2 pi/alat)
               b(1) = ( -0.707107 -0.707107  0.707107 )  
               b(2) = (  0.707107  0.707107  0.707107 )  
               b(3) = ( -0.707107  0.707107 -0.707107 )  


     PseudoPot. # 1 for Al read from file:
     ../../pseudo/Al.pbe-n-kjpaw_psl.1.0.0.UPF
     MD5 check sum: 502b6b27b9c6270cab5dd1084b96fa6d
     Pseudo is Projector augmented-wave + core cor, Zval =  3.0
     Generated using &quot;atomic&quot; code by A. Dal Corso  v.6.3
     Shape of augmentation charge: PSQ
     Using radial grid of 1135 points,  6 beta functions with: 
                l(1) =   0
                l(2) =   0
                l(3) =   1
                l(4) =   1
                l(5) =   2
                l(6) =   2
     Q(r) pseudized with 0 coefficients 


     PseudoPot. # 2 for N  read from file:
     ../../pseudo/N.pbe-n-kjpaw_psl.1.0.0.UPF
     MD5 check sum: 14c48229446f9f2d411169a3abcbc3fa
     Pseudo is Projector augmented-wave + core cor, Zval =  5.0
     Generated using &quot;atomic&quot; code by A. Dal Corso  v.6.3
     Shape of augmentation charge: PSQ
     Using radial grid of 1085 points,  4 beta functions with: 
                l(1) =   0
                l(2) =   0
                l(3) =   1
                l(4) =   1
     Q(r) pseudized with 0 coefficients 


     atomic species   valence    mass     pseudopotential
        Al             3.00    26.98200     Al( 1.00)
        N              5.00    14.00700     N ( 1.00)

     48 Sym. Ops., with inversion, found



   Cartesian axes

     site n.     atom                  positions (alat units)
         1           Al  tau(   1) = (   0.0000000   0.0000000   0.0000000  )
         2           N   tau(   2) = (  -0.7071068   0.7071068   0.7071068  )

     number of k points=    72  Gaussian smearing, width (Ry)=  0.0050
                       cart. coord. in units 2pi/alat
        k(    1) = (   0.0000000   0.0000000   0.0000000), wk =   0.0011574
        k(    2) = (  -0.0589256   0.0589256  -0.0589256), wk =   0.0092593
        k(    3) = (  -0.1178511   0.1178511  -0.1178511), wk =   0.0092593
        k(    4) = (  -0.1767767   0.1767767  -0.1767767), wk =   0.0092593
        k(    5) = (  -0.2357023   0.2357023  -0.2357023), wk =   0.0092593
        k(    6) = (  -0.2946278   0.2946278  -0.2946278), wk =   0.0092593
        k(    7) = (   0.3535534  -0.3535534   0.3535534), wk =   0.0046296
        k(    8) = (  -0.0000000   0.1178511  -0.0000000), wk =   0.0069444
        k(    9) = (  -0.0589256   0.1767767  -0.0589256), wk =   0.0277778
        k(   10) = (  -0.1178511   0.2357023  -0.1178511), wk =   0.0277778
        k(   11) = (  -0.1767767   0.2946278  -0.1767767), wk =   0.0277778
        k(   12) = (  -0.2357023   0.3535534  -0.2357023), wk =   0.0277778
        k(   13) = (   0.4124790  -0.2946278   0.4124790), wk =   0.0277778
        k(   14) = (   0.3535534  -0.2357023   0.3535534), wk =   0.0277778
        k(   15) = (   0.2946278  -0.1767767   0.2946278), wk =   0.0277778
        k(   16) = (   0.2357023  -0.1178511   0.2357023), wk =   0.0277778
        k(   17) = (   0.1767767  -0.0589256   0.1767767), wk =   0.0277778
        k(   18) = (   0.1178511  -0.0000000   0.1178511), wk =   0.0138889
        k(   19) = (  -0.0000000   0.2357023  -0.0000000), wk =   0.0069444
        k(   20) = (  -0.0589256   0.2946278  -0.0589256), wk =   0.0277778
        k(   21) = (  -0.1178511   0.3535534  -0.1178511), wk =   0.0277778
        k(   22) = (  -0.1767767   0.4124790  -0.1767767), wk =   0.0277778
        k(   23) = (   0.4714045  -0.2357023   0.4714045), wk =   0.0277778
        k(   24) = (   0.4124790  -0.1767767   0.4124790), wk =   0.0277778
        k(   25) = (   0.3535534  -0.1178511   0.3535534), wk =   0.0277778
        k(   26) = (   0.2946278  -0.0589256   0.2946278), wk =   0.0277778
        k(   27) = (   0.2357023   0.0000000   0.2357023), wk =   0.0138889
        k(   28) = (   0.0000000   0.3535534   0.0000000), wk =   0.0069444
        k(   29) = (  -0.0589256   0.4124790  -0.0589256), wk =   0.0277778
        k(   30) = (  -0.1178511   0.4714045  -0.1178511), wk =   0.0277778
        k(   31) = (   0.5303301  -0.1767767   0.5303301), wk =   0.0277778
        k(   32) = (   0.4714045  -0.1178511   0.4714045), wk =   0.0277778
        k(   33) = (   0.4124790  -0.0589256   0.4124790), wk =   0.0277778
        k(   34) = (   0.3535534   0.0000000   0.3535534), wk =   0.0138889
        k(   35) = (  -0.0000000   0.4714045  -0.0000000), wk =   0.0069444
        k(   36) = (  -0.0589256   0.5303301  -0.0589256), wk =   0.0277778
        k(   37) = (   0.5892557  -0.1178511   0.5892557), wk =   0.0277778
        k(   38) = (   0.5303301  -0.0589256   0.5303301), wk =   0.0277778
        k(   39) = (   0.4714045  -0.0000000   0.4714045), wk =   0.0138889
        k(   40) = (  -0.0000000   0.5892557  -0.0000000), wk =   0.0069444
        k(   41) = (   0.6481812  -0.0589256   0.6481812), wk =   0.0277778
        k(   42) = (   0.5892557   0.0000000   0.5892557), wk =   0.0138889
        k(   43) = (   0.0000000  -0.7071068   0.0000000), wk =   0.0034722
        k(   44) = (  -0.1178511   0.2357023   0.0000000), wk =   0.0277778
        k(   45) = (  -0.1767767   0.2946278  -0.0589256), wk =   0.0555556
        k(   46) = (  -0.2357023   0.3535534  -0.1178511), wk =   0.0555556
        k(   47) = (   0.4124790  -0.2946278   0.5303301), wk =   0.0555556
        k(   48) = (   0.3535534  -0.2357023   0.4714045), wk =   0.0277778
        k(   49) = (  -0.1178511   0.3535534   0.0000000), wk =   0.0277778
        k(   50) = (  -0.1767767   0.4124790  -0.0589256), wk =   0.0555556
        k(   51) = (   0.4714045  -0.2357023   0.5892557), wk =   0.0555556
        k(   52) = (   0.4124790  -0.1767767   0.5303301), wk =   0.0555556
        k(   53) = (   0.3535534  -0.1178511   0.4714045), wk =   0.0555556
        k(   54) = (   0.2946278  -0.0589256   0.4124790), wk =   0.0555556
        k(   55) = (   0.2357023   0.0000000   0.3535534), wk =   0.0277778
        k(   56) = (  -0.1178511   0.4714045  -0.0000000), wk =   0.0277778
        k(   57) = (   0.5303301  -0.1767767   0.6481812), wk =   0.0555556
        k(   58) = (   0.4714045  -0.1178511   0.5892557), wk =   0.0555556
        k(   59) = (   0.4124790  -0.0589256   0.5303301), wk =   0.0555556
        k(   60) = (   0.3535534  -0.0000000   0.4714045), wk =   0.0277778
        k(   61) = (   0.5892557  -0.1178511   0.7071068), wk =   0.0277778
        k(   62) = (   0.5303301  -0.0589256   0.6481812), wk =   0.0555556
        k(   63) = (   0.4714045  -0.0000000   0.5892557), wk =   0.0277778
        k(   64) = (  -0.1178511  -0.7071068  -0.0000000), wk =   0.0138889
        k(   65) = (   0.4714045  -0.2357023   0.7071068), wk =   0.0277778
        k(   66) = (   0.4124790  -0.1767767   0.6481812), wk =   0.0555556
        k(   67) = (   0.3535534  -0.1178511   0.5892557), wk =   0.0277778
        k(   68) = (   0.4714045  -0.1178511   0.7071068), wk =   0.0277778
        k(   69) = (   0.4124790  -0.0589256   0.6481812), wk =   0.0555556
        k(   70) = (   0.3535534   0.0000000   0.5892557), wk =   0.0277778
        k(   71) = (  -0.2357023  -0.7071068   0.0000000), wk =   0.0138889
        k(   72) = (  -0.3535534  -0.7071068   0.0000000), wk =   0.0069444

     Dense  grid:    43599 G-vectors     FFT dimensions: (  50,  50,  50)

     Estimated max dynamical RAM per process >      65.42 MB

     Estimated total dynamical RAM >     251.02 MB

     Initial potential from superposition of free atoms

     starting charge       7.9977, renormalised to       8.0000
     Starting wfcs are    8 randomized atomic wfcs
     Checking if some PAW data can be deallocated... 

     total cpu time spent up to now is        0.9 secs

     Self-consistent Calculation

     iteration #  1     ecut=   200.00 Ry     beta= 0.20
     Davidson diagonalization with overlap
     ethr =  1.00E-02,  avg # of iterations =  4.1

     total cpu time spent up to now is        2.4 secs

     total energy              =     -67.96469507 Ry
     estimated scf accuracy    <       0.41888573 Ry

     iteration #  2     ecut=   200.00 Ry     beta= 0.20
     Davidson diagonalization with overlap
     ethr =  5.24E-03,  avg # of iterations =  1.0

     total cpu time spent up to now is        3.4 secs

     total energy              =     -67.86451865 Ry
     estimated scf accuracy    <       0.23100677 Ry

     iteration #  3     ecut=   200.00 Ry     beta= 0.20
     Davidson diagonalization with overlap
     ethr =  2.89E-03,  avg # of iterations =  1.8

     total cpu time spent up to now is        4.5 secs

     total energy              =     -67.90319932 Ry
     estimated scf accuracy    <       0.00699540 Ry

     iteration #  4     ecut=   200.00 Ry     beta= 0.20
     Davidson diagonalization with overlap
     ethr =  8.74E-05,  avg # of iterations =  2.2

     total cpu time spent up to now is        5.7 secs

     total energy              =     -67.90320527 Ry
     estimated scf accuracy    <       0.00166972 Ry

     iteration #  5     ecut=   200.00 Ry     beta= 0.20
     Davidson diagonalization with overlap
     ethr =  2.09E-05,  avg # of iterations =  1.6

     total cpu time spent up to now is        6.7 secs

     total energy              =     -67.90341161 Ry
     estimated scf accuracy    <       0.00001043 Ry

     iteration #  6     ecut=   200.00 Ry     beta= 0.20
     Davidson diagonalization with overlap
     ethr =  1.30E-07,  avg # of iterations =  3.6

     total cpu time spent up to now is        8.1 secs

     total energy              =     -67.90336500 Ry
     estimated scf accuracy    <       0.00012566 Ry

     iteration #  7     ecut=   200.00 Ry     beta= 0.20
     Davidson diagonalization with overlap
     ethr =  1.30E-07,  avg # of iterations =  2.5

     total cpu time spent up to now is        9.3 secs

     total energy              =     -67.90339295 Ry
     estimated scf accuracy    <       0.00000438 Ry

     iteration #  8     ecut=   200.00 Ry     beta= 0.20
     Davidson diagonalization with overlap
     ethr =  5.48E-08,  avg # of iterations =  2.0

     total cpu time spent up to now is       10.4 secs

     total energy              =     -67.90339406 Ry
     estimated scf accuracy    <       0.00000036 Ry

     iteration #  9     ecut=   200.00 Ry     beta= 0.20
     Davidson diagonalization with overlap
     ethr =  4.56E-09,  avg # of iterations =  1.2

     total cpu time spent up to now is       11.4 secs

     total energy              =     -67.90339406 Ry
     estimated scf accuracy    <       0.00000006 Ry

     iteration # 10     ecut=   200.00 Ry     beta= 0.20
     Davidson diagonalization with overlap
     ethr =  7.11E-10,  avg # of iterations =  1.6

     total cpu time spent up to now is       12.4 secs

     End of self-consistent calculation

          k = 0.0000 0.0000 0.0000 (  5521 PWs)   bands (ev):

    -6.4736  10.9188  10.9188  10.9188  16.3046  23.0315  23.0315  23.0315

          k =-0.0589 0.0589-0.0589 (  5450 PWs)   bands (ev):

    -6.3333  10.1826  10.8346  10.8346  16.7830  22.3325  23.2436  23.2436

          k =-0.1179 0.1179-0.1179 (  5444 PWs)   bands (ev):

    -5.9213   8.5346  10.6169  10.6169  17.5120  21.5902  23.5353  23.5353

          k =-0.1768 0.1768-0.1768 (  5414 PWs)   bands (ev):

    -5.2688   6.6149  10.3446  10.3446  17.6205  21.8894  23.1229  23.1229

          k =-0.2357 0.2357-0.2357 (  5429 PWs)   bands (ev):

    -4.4519   4.7714  10.0957  10.0957  17.3115  22.4396  22.4396  22.8230

          k =-0.2946 0.2946-0.2946 (  5438 PWs)   bands (ev):

    -3.6572   3.3204   9.9258   9.9258  17.0398  21.9596  21.9596  23.6215

          k = 0.3536-0.3536 0.3536 (  5444 PWs)   bands (ev):

    -3.2870   2.7252   9.8660   9.8660  16.9421  21.7928  21.7928  23.9077

          k =-0.0000 0.1179-0.0000 (  5441 PWs)   bands (ev):

    -6.2868  10.2311  10.6621  10.6621  16.9665  21.8783  23.4494  23.4494

          k =-0.0589 0.1768-0.0589 (  5429 PWs)   bands (ev):

    -5.9660   9.0027  10.3803  10.5058  17.6911  21.0516  23.5919  23.8627

          k =-0.1179 0.2357-0.1179 (  5421 PWs)   bands (ev):

    -5.3937   7.2419  10.0820  10.2367  18.0804  21.0542  22.6414  23.8004

          k =-0.1768 0.2946-0.1768 (  5431 PWs)   bands (ev):

    -4.6276   5.4149   9.8450   9.8909  17.8682  21.7505  22.0394  23.1870

          k =-0.2357 0.3536-0.2357 (  5432 PWs)   bands (ev):

    -3.8063   3.8390   9.5696   9.7177  17.5928  21.1929  22.5592  23.1726

          k = 0.4125-0.2946 0.4125 (  5435 PWs)   bands (ev):

    -3.2517   2.9264   9.3422   9.7211  17.4651  20.9988  22.1620  23.8283

          k = 0.3536-0.2357 0.3536 (  5451 PWs)   bands (ev):

    -3.3779   3.1266   9.2492   9.8529  17.5162  21.1692  22.0749  23.7105

          k = 0.2946-0.1768 0.2946 (  5428 PWs)   bands (ev):

    -4.0721   4.3193   9.3098  10.0888  17.7349  21.6758  22.3277  22.9015

          k = 0.2357-0.1179 0.2357 (  5433 PWs)   bands (ev):

    -4.8990   6.0131   9.5256  10.3810  18.0385  21.7787  22.4696  22.9204

          k = 0.1768-0.0589 0.1768 (  5430 PWs)   bands (ev):

    -5.6101   7.8274   9.8827  10.6576  18.0479  21.1421  23.2666  23.6989

          k = 0.1179-0.0000 0.1179 (  5429 PWs)   bands (ev):

    -6.1026   9.3701  10.3693  10.8316  17.3866  21.5768  23.5260  23.5572

          k =-0.0000 0.2357-0.0000 (  5409 PWs)   bands (ev):

    -5.7409   8.7657  10.0388  10.0388  18.2164  20.0206  23.0414  24.4705

          k =-0.0589 0.2946-0.0589 (  5417 PWs)   bands (ev):

    -5.2623   7.5718   9.6925   9.6998  18.6300  19.5403  21.9712  24.7931

          k =-0.1179 0.3536-0.1179 (  5445 PWs)   bands (ev):

    -4.5756   6.0305   9.2022   9.4455  18.3815  20.2500  21.2934  24.4176

          k =-0.1768 0.4125-0.1768 (  5441 PWs)   bands (ev):

    -3.7868   4.5372   8.6601   9.3243  18.1233  20.4415  21.9393  23.7484

          k = 0.4714-0.2357 0.4714 (  5448 PWs)   bands (ev):

    -3.1390   3.4785   8.2079   9.3557  18.0952  20.2258  23.1055  23.1707

          k = 0.4125-0.1768 0.4125 (  5423 PWs)   bands (ev):

    -3.0269   3.3190   7.9286   9.5337  18.3063  20.2316  22.8317  23.4466

          k = 0.3536-0.1179 0.3536 (  5425 PWs)   bands (ev):

    -3.5440   4.1538   7.8780   9.8271  18.6817  20.5533  22.7253  22.7888

          k = 0.2946-0.0589 0.2946 (  5424 PWs)   bands (ev):

    -4.3217   5.5238   8.1269  10.1751  19.0641  21.1186  21.6473  23.0651

          k = 0.2357 0.0000 0.2357 (  5424 PWs)   bands (ev):

    -5.0569   6.8684   8.8154  10.4869  18.9283  20.7438  22.3169  23.6132

          k = 0.0000 0.3536 0.0000 (  5425 PWs)   bands (ev):

    -4.8848   7.1193   9.3195   9.3195  18.4098  18.4162  21.9200  25.6624

          k =-0.0589 0.4125-0.0589 (  5435 PWs)   bands (ev):

    -4.2982   6.1235   8.8052   9.0316  17.8248  18.3225  22.0781  25.7990

          k =-0.1179 0.4714-0.1179 (  5438 PWs)   bands (ev):

    -3.5886   5.0346   7.9801   8.8887  17.4314  19.1398  22.1769  25.2670

          k = 0.5303-0.1768 0.5303 (  5434 PWs)   bands (ev):

    -2.9416   4.1592   7.1510   8.9132  17.3753  20.2005  22.4577  24.5801

          k = 0.4714-0.1179 0.4714 (  5434 PWs)   bands (ev):

    -2.6721   3.8699   6.5560   9.1012  17.6848  20.7921  22.9013  23.9924

          k = 0.4125-0.0589 0.4125 (  5426 PWs)   bands (ev):

    -2.9700   4.3303   6.3531   9.4227  18.3316  21.0418  22.4816  23.5728

          k = 0.3536 0.0000 0.3536 (  5428 PWs)   bands (ev):

    -3.6205   5.0392   6.8488   9.8143  19.1611  21.2217  21.3843  23.2938

          k =-0.0000 0.4714-0.0000 (  5449 PWs)   bands (ev):

    -3.8266   5.5289   8.7049   8.7049  16.9826  17.2208  22.9700  26.7435

          k =-0.0589 0.5303-0.0589 (  5453 PWs)   bands (ev):

    -3.2373   4.7969   8.0998   8.5253  16.5202  17.3189  23.4054  26.7283

          k = 0.5893-0.1179 0.5893 (  5450 PWs)   bands (ev):

    -2.6822   4.3202   6.9840   8.5201  16.4450  18.4932  23.4954  26.0882

          k = 0.5303-0.0589 0.5303 (  5437 PWs)   bands (ev):

    -2.3908   4.3669   5.8213   8.6901  16.7456  20.0838  23.3532  25.2747

          k = 0.4714-0.0000 0.4714 (  5420 PWs)   bands (ev):

    -2.5168   4.8417   5.1412   9.0103  17.4086  21.2974  22.7859  24.4308

          k =-0.0000 0.5893-0.0000 (  5442 PWs)   bands (ev):

    -2.8081   4.2183   8.3035   8.3035  15.7807  16.4980  24.2016  27.5437

          k = 0.6482-0.0589 0.6482 (  5431 PWs)   bands (ev):

    -2.4386   3.8842   7.7158   8.2569  15.7316  16.8395  24.4251  27.3347

          k = 0.5893 0.0000 0.5893 (  5428 PWs)   bands (ev):

    -2.2846   4.0327   6.5952   8.3920  16.0801  18.2832  24.1543  26.4541

          k = 0.0000-0.7071 0.0000 (  5434 PWs)   bands (ev):

    -2.3341   3.6524   8.1649   8.1649  15.3496  16.2559  24.7280  27.8526

          k =-0.1179 0.2357 0.0000 (  5438 PWs)   bands (ev):

    -5.5653   8.0384   9.6684  10.4027  18.4020  20.3779  22.7551  24.5496

          k =-0.1768 0.2946-0.0589 (  5435 PWs)   bands (ev):

    -4.9337   6.5774   9.0534  10.1622  18.7496  20.6184  21.6750  24.0005

          k =-0.2357 0.3536-0.1179 (  5431 PWs)   bands (ev):

    -4.1499   4.9765   8.6772   9.8447  18.5186  20.8373  21.8261  23.3538

          k = 0.4125-0.2946 0.5303 (  5440 PWs)   bands (ev):

    -3.3996   3.6630   8.4830   9.5851  18.3148  20.3051  22.7792  23.1565

          k = 0.3536-0.2357 0.4714 (  5438 PWs)   bands (ev):

    -3.0567   3.1219   8.4253   9.4851  18.2468  20.1202  22.6898  23.6070

          k =-0.1179 0.3536 0.0000 (  5441 PWs)   bands (ev):

    -4.7269   6.6617   8.8726   9.5745  18.8552  19.0538  21.4672  25.1677

          k =-0.1768 0.4125-0.0589 (  5437 PWs)   bands (ev):

    -4.0223   5.4954   8.1666   9.2642  18.5313  19.7260  21.2320  24.7561

          k = 0.4714-0.2357 0.5893 (  5426 PWs)   bands (ev):

    -3.2908   4.3500   7.6282   9.0173  18.3537  20.1456  21.8029  24.1989

          k = 0.4125-0.1768 0.5303 (  5430 PWs)   bands (ev):

    -2.8211   3.6723   7.2499   8.9857  18.4758  20.0119  22.8349  23.7145

          k = 0.3536-0.1179 0.4714 (  5424 PWs)   bands (ev):

    -2.9318   3.8556   7.0789   9.1747  18.8926  19.9135  22.7534  23.5647

          k = 0.2946-0.0589 0.4125 (  5426 PWs)   bands (ev):

    -3.5340   4.7580   7.2235   9.5161  19.5064  20.0401  21.5500  23.7281

          k = 0.2357 0.0000 0.3536 (  5421 PWs)   bands (ev):

    -4.2780   5.7928   7.8850   9.8969  19.7224  20.4039  20.6953  23.9491

          k =-0.1179 0.4714-0.0000 (  5439 PWs)   bands (ev):

    -3.7016   5.3679   8.2001   8.7113  17.5682  18.0103  22.4399  25.9681

          k = 0.5303-0.1768 0.6482 (  5431 PWs)   bands (ev):

    -3.0535   4.6742   7.3196   8.4400  17.4191  18.9007  22.4872  25.4695

          k = 0.4714-0.1179 0.5893 (  5425 PWs)   bands (ev):

    -2.5717   4.2880   6.3911   8.4391  17.5358  20.1872  22.5341  24.7229

          k = 0.4125-0.0589 0.5303 (  5431 PWs)   bands (ev):

    -2.5151   4.4184   5.7790   8.6722  17.9838  20.9521  22.5471  24.0652

          k = 0.3536-0.0000 0.4714 (  5423 PWs)   bands (ev):

    -2.9132   4.6941   6.0156   9.0684  18.7291  21.0306  21.6406  23.9833

          k = 0.5893-0.1179 0.7071 (  5434 PWs)   bands (ev):

    -2.7349   4.3034   7.7634   8.0781  16.4490  17.3602  23.7693  26.5046

          k = 0.5303-0.0589 0.6482 (  5435 PWs)   bands (ev):

    -2.3645   4.1936   6.7182   8.0076  16.7305  18.5077  23.7149  25.5861

          k = 0.4714-0.0000 0.5893 (  5423 PWs)   bands (ev):

    -2.2868   4.5927   5.5771   8.2490  17.2154  20.1500  23.2685  24.5646

          k =-0.1179-0.7071-0.0000 (  5436 PWs)   bands (ev):

    -2.2967   3.8431   7.6132   7.8474  16.0541  17.1405  24.4158  26.6079

          k = 0.4714-0.2357 0.7071 (  5431 PWs)   bands (ev):

    -3.3613   4.9858   7.1193   8.8404  18.9754  19.8126  20.9948  24.7592

          k = 0.4125-0.1768 0.6482 (  5427 PWs)   bands (ev):

    -2.7673   4.4773   6.4605   8.4283  18.9345  20.2366  21.4948  24.3501

          k = 0.3536-0.1179 0.5893 (  5440 PWs)   bands (ev):

    -2.5135   4.2256   6.2645   8.2639  18.9096  20.1551  22.3600  23.8603

          k = 0.4714-0.1179 0.7071 (  5438 PWs)   bands (ev):

    -2.5561   4.5324   6.6294   7.7736  17.9986  19.3650  22.3497  24.8974

          k = 0.4125-0.0589 0.6482 (  5435 PWs)   bands (ev):

    -2.2871   4.7329   5.7889   7.5630  18.3947  20.5240  22.2219  23.8034

          k = 0.3536 0.0000 0.5893 (  5443 PWs)   bands (ev):

    -2.3758   4.9107   5.4889   7.8528  18.7684  21.0830  21.5872  23.7233

          k =-0.2357-0.7071 0.0000 (  5424 PWs)   bands (ev):

    -2.2197   4.4066   6.4618   7.2981  17.6713  19.2043  23.3898  24.3337

          k =-0.3536-0.7071 0.0000 (  5440 PWs)   bands (ev):

    -2.1800   5.3097   5.3097   7.0533  18.8203  21.5396  21.5396  22.9514

     the Fermi energy is    12.9199 ev

!    total energy              =     -67.90339406 Ry
     total all-electron energy =      -595.344972 Ry
     estimated scf accuracy    <          5.0E-09 Ry
     smearing contrib. (-TS)   =      -0.00000000 Ry
     internal energy E=F+TS    =     -67.90339406 Ry

     The total energy is F=E-TS. E is the sum of the following terms:
     one-electron contribution =       3.32975912 Ry
     hartree contribution      =       4.56027862 Ry
     xc contribution           =      -8.64068685 Ry
     ewald contribution        =     -24.51862769 Ry
     one-center paw contrib.   =     -42.63411726 Ry

     convergence has been achieved in  10 iterations

     Forces acting on atoms (cartesian axes, Ry/au):

     atom    1 type  1   force =     0.00000000    0.00000000    0.00000000
     atom    2 type  2   force =     0.00000000    0.00000000    0.00000000

     Total force =     0.000000     Total SCF correction =     0.000000


     Computing stress (Cartesian axis) and pressure

          total   stress  (Ry/bohr**3)                   (kbar)     P=        6.19
   0.00004209  -0.00000000  -0.00000000            6.19       -0.00       -0.00
  -0.00000000   0.00004209   0.00000000           -0.00        6.19        0.00
  -0.00000000   0.00000000   0.00004209           -0.00        0.00        6.19


     Writing all to output data dir ../output/AlN.save/
 
     init_run     :      0.69s CPU      0.74s WALL (       1 calls)
     electrons    :     11.21s CPU     11.58s WALL (       1 calls)
     forces       :      0.17s CPU      0.19s WALL (       1 calls)
     stress       :      0.65s CPU      0.68s WALL (       1 calls)

     Called by init_run:
     wfcinit      :      0.33s CPU      0.34s WALL (       1 calls)
     potinit      :      0.11s CPU      0.12s WALL (       1 calls)
     hinit0       :      0.20s CPU      0.20s WALL (       1 calls)

     Called by electrons:
     c_bands      :      8.18s CPU      8.31s WALL (      10 calls)
     sum_band     :      1.89s CPU      2.00s WALL (      10 calls)
     v_of_rho     :      0.21s CPU      0.22s WALL (      11 calls)
     newd         :      0.26s CPU      0.36s WALL (      11 calls)
     PAW_pot      :      0.54s CPU      0.55s WALL (      11 calls)
     mix_rho      :      0.21s CPU      0.24s WALL (      10 calls)

     Called by c_bands:
     init_us_2    :      0.44s CPU      0.45s WALL (     828 calls)
     init_us_2:cp :      0.44s CPU      0.45s WALL (     828 calls)
     cegterg      :      6.92s CPU      7.03s WALL (     360 calls)

     Called by *egterg:
     cdiaghg      :      0.10s CPU      0.11s WALL (    1175 calls)
     h_psi        :      6.36s CPU      6.46s WALL (    1211 calls)
     s_psi        :      0.15s CPU      0.16s WALL (    1211 calls)
     g_psi        :      0.04s CPU      0.04s WALL (     815 calls)

     Called by h_psi:
     h_psi:calbec :      0.17s CPU      0.18s WALL (    1211 calls)
     vloc_psi     :      5.99s CPU      6.08s WALL (    1211 calls)
     add_vuspsi   :      0.15s CPU      0.16s WALL (    1211 calls)

     General routines
     calbec       :      0.26s CPU      0.27s WALL (    1751 calls)
     fft          :      0.10s CPU      0.10s WALL (     146 calls)
     ffts         :      0.11s CPU      0.11s WALL (     177 calls)
     fftw         :      6.16s CPU      6.25s WALL (   17358 calls)
 
     Parallel routines
 
     PWSCF        :     12.94s CPU     13.54s WALL

 
   This run was terminated on:  11:35:47  28Apr2026            

=------------------------------------------------------------------------------=
   JOB DONE.
=------------------------------------------------------------------------------=
