
     Program PWSCF v.7.1 starts on  6May2026 at 11:21:26 

     This program is part of the open-source Quantum ESPRESSO suite
     for quantum simulation of materials; please cite
         "P. Giannozzi et al., J. Phys.:Condens. Matter 21 395502 (2009);
         "P. Giannozzi et al., J. Phys.:Condens. Matter 29 465901 (2017);
         "P. Giannozzi et al., J. Chem. Phys. 152 154105 (2020);
          URL http://www.quantum-espresso.org", 
     in publications or presentations arising from this work. More details at
     http://www.quantum-espresso.org/quote

     Parallel version (MPI & OpenMP), running on      32 processor cores
     Number of MPI processes:                32
     Threads/MPI process:                     1

     MPI processes distributed on     1 nodes
     91428 MiB available memory on the printing compute node when the environment starts
 
     Reading input from TiN_scfcutoff20.in

     Current dimensions of program PWSCF are:
     Max number of different atomic species (ntypx) = 10
     Max number of k-points (npk) = 150000
     Max angular momentum in pseudopotentials (lmaxx) =  4
     file Ti.pbe-spn-kjpaw_psl.1.0.0.UPF: wavefunction(s)  3S 3P 3D renormalized
     file N.pbe-n-kjpaw_psl.1.0.0.UPF: wavefunction(s)  2S renormalized
     Message from routine setup:
     using ibrav=0 with symmetry is DISCOURAGED, use correct ibrav instead
 
     K-points division:     npool     =       2
     R & G space division:  proc/nbgrp/npool/nimage =      16
     Subspace diagonalization in iterative solution of the eigenvalue problem:
     a serial algorithm will be used

 
     Parallelization info
     --------------------
     sticks:   dense  smooth     PW     G-vecs:    dense   smooth      PW
     Min          10      10      3                   91       91      19
     Max          11      11      4                   94       94      22
     Sum         169     169     61                 1471     1471     339
 
     Using Slab Decomposition
 


     bravais-lattice index     =            0
     lattice parameter (alat)  =       5.6709  a.u.
     unit-cell volume          =     128.9531 (a.u.)^3
     number of atoms/cell      =            2
     number of atomic types    =            2
     number of electrons       =        17.00
     number of Kohn-Sham states=           13
     kinetic-energy cutoff     =      20.0000  Ry
     charge density cutoff     =      80.0000  Ry
     scf convergence threshold =      1.0E-08
     mixing beta               =       0.2000
     number of iterations used =            8  local-TF  mixing
     Exchange-correlation= SLA  PW   PBX  PBC
                           (   1   4   3   4   0   0   0)

     celldm(1)=   5.670860  celldm(2)=   0.000000  celldm(3)=   0.000000
     celldm(4)=   0.000000  celldm(5)=   0.000000  celldm(6)=   0.000000

     crystal axes: (cart. coord. in units of alat)
               a(1) = (  -0.707107   0.000000   0.707107 )  
               a(2) = (   0.000000   0.707107   0.707107 )  
               a(3) = (  -0.707107   0.707107   0.000000 )  

     reciprocal axes: (cart. coord. in units 2 pi/alat)
               b(1) = ( -0.707107 -0.707107  0.707107 )  
               b(2) = (  0.707107  0.707107  0.707107 )  
               b(3) = ( -0.707107  0.707107 -0.707107 )  


     PseudoPot. # 1 for Ti read from file:
     ../../pseudo/Ti.pbe-spn-kjpaw_psl.1.0.0.UPF
     MD5 check sum: 01f69b0d8ba4438b2e03ac6ea4af1c0b
     Pseudo is Projector augmented-wave + core cor, Zval = 12.0
     Generated using &quot;atomic&quot; code by A. Dal Corso  v.6.2.2
     Shape of augmentation charge: PSQ
     Using radial grid of 1177 points,  6 beta functions with: 
                l(1) =   0
                l(2) =   0
                l(3) =   1
                l(4) =   1
                l(5) =   2
                l(6) =   2
     Q(r) pseudized with 0 coefficients 


     PseudoPot. # 2 for N  read from file:
     ../../pseudo/N.pbe-n-kjpaw_psl.1.0.0.UPF
     MD5 check sum: 14c48229446f9f2d411169a3abcbc3fa
     Pseudo is Projector augmented-wave + core cor, Zval =  5.0
     Generated using &quot;atomic&quot; code by A. Dal Corso  v.6.3
     Shape of augmentation charge: PSQ
     Using radial grid of 1085 points,  4 beta functions with: 
                l(1) =   0
                l(2) =   0
                l(3) =   1
                l(4) =   1
     Q(r) pseudized with 0 coefficients 


     atomic species   valence    mass     pseudopotential
        Ti            12.00    47.86700     Ti( 1.00)
        N              5.00    14.00700     N ( 1.00)

     48 Sym. Ops., with inversion, found



   Cartesian axes

     site n.     atom                  positions (alat units)
         1           Ti  tau(   1) = (   0.0000000   0.0000000   0.0000000  )
         2           N   tau(   2) = (  -0.7071068   0.7071068   0.7071068  )

     number of k points=   145  Gaussian smearing, width (Ry)=  0.0050

     Number of k-points >= 100: set verbosity='high' to print them.

     Dense  grid:     1471 G-vectors     FFT dimensions: (  18,  18,  18)

     Estimated max dynamical RAM per process >       1.85 MB

     Estimated total dynamical RAM >      58.73 MB

     Check: negative core charge=   -0.002868

     Initial potential from superposition of free atoms

     starting charge      16.9985, renormalised to      17.0000
     Starting wfcs are   14 randomized atomic wfcs
     Checking if some PAW data can be deallocated... 

     total cpu time spent up to now is        0.4 secs

     Self-consistent Calculation

     iteration #  1     ecut=    20.00 Ry     beta= 0.20
     Davidson diagonalization with overlap
     ethr =  1.00E-02,  avg # of iterations =  2.5

     total cpu time spent up to now is        0.8 secs

     total energy              =    -211.33482266 Ry
     estimated scf accuracy    <       1.02658607 Ry

     iteration #  2     ecut=    20.00 Ry     beta= 0.20
     Davidson diagonalization with overlap
     ethr =  6.04E-03,  avg # of iterations =  1.0

     total cpu time spent up to now is        1.1 secs

     total energy              =    -210.98571688 Ry
     estimated scf accuracy    <       0.66411344 Ry

     iteration #  3     ecut=    20.00 Ry     beta= 0.20
     Davidson diagonalization with overlap
     ethr =  3.91E-03,  avg # of iterations =  2.1

     total cpu time spent up to now is        1.4 secs

     total energy              =    -211.11602630 Ry
     estimated scf accuracy    <       0.04372898 Ry

     iteration #  4     ecut=    20.00 Ry     beta= 0.20
     Davidson diagonalization with overlap
     ethr =  2.57E-04,  avg # of iterations =  2.4

     negative rho (up, down):  7.641E-04 0.000E+00

     total cpu time spent up to now is        1.8 secs

     total energy              =    -211.10529838 Ry
     estimated scf accuracy    <       0.07655369 Ry

     iteration #  5     ecut=    20.00 Ry     beta= 0.20
     Davidson diagonalization with overlap
     ethr =  2.57E-04,  avg # of iterations =  2.2

     negative rho (up, down):  9.567E-04 0.000E+00

     total cpu time spent up to now is        2.1 secs

     total energy              =    -211.11511761 Ry
     estimated scf accuracy    <       0.00161207 Ry

     iteration #  6     ecut=    20.00 Ry     beta= 0.20
     Davidson diagonalization with overlap
     ethr =  9.48E-06,  avg # of iterations =  3.4

     negative rho (up, down):  1.073E-03 0.000E+00

     total cpu time spent up to now is        2.5 secs

     total energy              =    -211.11534456 Ry
     estimated scf accuracy    <       0.00007370 Ry

     iteration #  7     ecut=    20.00 Ry     beta= 0.20
     Davidson diagonalization with overlap
     ethr =  4.34E-07,  avg # of iterations =  1.3

     negative rho (up, down):  1.073E-03 0.000E+00

     total cpu time spent up to now is        2.8 secs

     total energy              =    -211.11532966 Ry
     estimated scf accuracy    <       0.00002948 Ry

     iteration #  8     ecut=    20.00 Ry     beta= 0.20
     Davidson diagonalization with overlap
     ethr =  1.73E-07,  avg # of iterations =  2.1

     negative rho (up, down):  1.056E-03 0.000E+00

     total cpu time spent up to now is        3.2 secs

     total energy              =    -211.11533999 Ry
     estimated scf accuracy    <       0.00000887 Ry

     iteration #  9     ecut=    20.00 Ry     beta= 0.20
     Davidson diagonalization with overlap
     ethr =  5.22E-08,  avg # of iterations =  1.0

     negative rho (up, down):  1.050E-03 0.000E+00

     total cpu time spent up to now is        3.4 secs

     total energy              =    -211.11533927 Ry
     estimated scf accuracy    <       0.00000258 Ry

     iteration # 10     ecut=    20.00 Ry     beta= 0.20
     Davidson diagonalization with overlap
     ethr =  1.52E-08,  avg # of iterations =  1.7

     negative rho (up, down):  1.050E-03 0.000E+00

     total cpu time spent up to now is        3.7 secs

     total energy              =    -211.11533965 Ry
     estimated scf accuracy    <       0.00000003 Ry

     iteration # 11     ecut=    20.00 Ry     beta= 0.20
     Davidson diagonalization with overlap
     ethr =  1.82E-10,  avg # of iterations =  2.0

     negative rho (up, down):  1.050E-03 0.000E+00

     total cpu time spent up to now is        4.1 secs

     total energy              =    -211.11533965 Ry
     estimated scf accuracy    <       0.00000001 Ry

     iteration # 12     ecut=    20.00 Ry     beta= 0.20
     Davidson diagonalization with overlap
     ethr =  8.11E-11,  avg # of iterations =  2.0

     negative rho (up, down):  1.050E-03 0.000E+00

     total cpu time spent up to now is        4.4 secs

     End of self-consistent calculation

     Number of k-points >= 100: set verbosity='high' to print the bands.

     the Fermi energy is    19.0477 ev

!    total energy              =    -211.11533966 Ry
     total all-electron energy =     -1816.337048 Ry
     estimated scf accuracy    <          1.3E-09 Ry
     smearing contrib. (-TS)   =      -0.00012755 Ry
     internal energy E=F+TS    =    -211.11521211 Ry

     The total energy is F=E-TS. E is the sum of the following terms:
     one-electron contribution =     -21.64347286 Ry
     hartree contribution      =      20.80293956 Ry
     xc contribution           =     -24.08161311 Ry
     ewald contribution        =    -112.92161995 Ry
     one-center paw contrib.   =     -73.27144574 Ry

     convergence has been achieved in  12 iterations

     negative rho (up, down):  1.050E-03 0.000E+00

     Forces acting on atoms (cartesian axes, Ry/au):

     atom    1 type  1   force =    -0.00000000   -0.00000000    0.00000000
     atom    2 type  2   force =     0.00000000    0.00000000   -0.00000000

     Total force =     0.000000     Total SCF correction =     0.000000


     Computing stress (Cartesian axis) and pressure


     negative rho (up, down):  1.050E-03 0.000E+00
          total   stress  (Ry/bohr**3)                   (kbar)     P=    -3631.78
  -0.02468832   0.00000000   0.00000000        -3631.78        0.00        0.00
  -0.00000000  -0.02468832  -0.00000000           -0.00    -3631.78       -0.00
   0.00000000  -0.00000000  -0.02468832            0.00       -0.00    -3631.78


     Writing all to output data dir ../output/TiN.save/
 
     init_run     :      0.15s CPU      0.20s WALL (       1 calls)
     electrons    :      3.61s CPU      3.98s WALL (       1 calls)
     forces       :      0.02s CPU      0.02s WALL (       1 calls)
     stress       :      0.03s CPU      0.04s WALL (       1 calls)

     Called by init_run:
     wfcinit      :      0.09s CPU      0.10s WALL (       1 calls)
     potinit      :      0.03s CPU      0.06s WALL (       1 calls)
     hinit0       :      0.02s CPU      0.02s WALL (       1 calls)

     Called by electrons:
     c_bands      :      2.80s CPU      3.06s WALL (      12 calls)
     sum_band     :      0.42s CPU      0.48s WALL (      12 calls)
     v_of_rho     :      0.01s CPU      0.01s WALL (      13 calls)
     newd         :      0.01s CPU      0.01s WALL (      13 calls)
     PAW_pot      :      0.38s CPU      0.39s WALL (      13 calls)
     mix_rho      :      0.02s CPU      0.02s WALL (      12 calls)

     Called by c_bands:
     init_us_2    :      0.03s CPU      0.03s WALL (    1971 calls)
     init_us_2:cp :      0.02s CPU      0.02s WALL (    1971 calls)
     cegterg      :      2.60s CPU      2.85s WALL (     876 calls)

     Called by *egterg:
     cdiaghg      :      0.58s CPU      0.63s WALL (    2662 calls)
     h_psi        :      1.77s CPU      1.95s WALL (    2735 calls)
     s_psi        :      0.02s CPU      0.02s WALL (    2735 calls)
     g_psi        :      0.01s CPU      0.01s WALL (    1786 calls)

     Called by h_psi:
     h_psi:calbec :      0.10s CPU      0.11s WALL (    2735 calls)
     vloc_psi     :      1.62s CPU      1.78s WALL (    2735 calls)
     add_vuspsi   :      0.02s CPU      0.03s WALL (    2735 calls)

     General routines
     calbec       :      0.12s CPU      0.14s WALL (    3976 calls)
     fft          :      0.01s CPU      0.01s WALL (     168 calls)
     ffts         :      0.01s CPU      0.01s WALL (     193 calls)
     fftw         :      1.74s CPU      1.92s WALL (   65402 calls)
 
     Parallel routines
 
     PWSCF        :      4.11s CPU      5.82s WALL

 
   This run was terminated on:  11:21:32   6May2026            

=------------------------------------------------------------------------------=
   JOB DONE.
=------------------------------------------------------------------------------=
