
     Program PWSCF v.7.1 starts on  6May2026 at 11:18:26 

     This program is part of the open-source Quantum ESPRESSO suite
     for quantum simulation of materials; please cite
         "P. Giannozzi et al., J. Phys.:Condens. Matter 21 395502 (2009);
         "P. Giannozzi et al., J. Phys.:Condens. Matter 29 465901 (2017);
         "P. Giannozzi et al., J. Chem. Phys. 152 154105 (2020);
          URL http://www.quantum-espresso.org", 
     in publications or presentations arising from this work. More details at
     http://www.quantum-espresso.org/quote

     Parallel version (MPI & OpenMP), running on      32 processor cores
     Number of MPI processes:                32
     Threads/MPI process:                     1

     MPI processes distributed on     1 nodes
     91187 MiB available memory on the printing compute node when the environment starts
 
     Reading input from TiN_scfcutoff400.in

     Current dimensions of program PWSCF are:
     Max number of different atomic species (ntypx) = 10
     Max number of k-points (npk) = 150000
     Max angular momentum in pseudopotentials (lmaxx) =  4
     file Ti.pbe-spn-kjpaw_psl.1.0.0.UPF: wavefunction(s)  3S 3P 3D renormalized
     file N.pbe-n-kjpaw_psl.1.0.0.UPF: wavefunction(s)  2S renormalized
     Message from routine setup:
     using ibrav=0 with symmetry is DISCOURAGED, use correct ibrav instead
 
     K-points division:     npool     =       2
     R & G space division:  proc/nbgrp/npool/nimage =      16
     Subspace diagonalization in iterative solution of the eigenvalue problem:
     a serial algorithm will be used

 
     Parallelization info
     --------------------
     sticks:   dense  smooth     PW     G-vecs:    dense   smooth      PW
     Min         222     222     60                 8720     8720    1260
     Max         223     223     61                 8722     8722    1263
     Sum        3559    3559    967               139535   139535   20179
 
     Using Slab Decomposition
 


     bravais-lattice index     =            0
     lattice parameter (alat)  =       5.6709  a.u.
     unit-cell volume          =     128.9531 (a.u.)^3
     number of atoms/cell      =            2
     number of atomic types    =            2
     number of electrons       =        17.00
     number of Kohn-Sham states=           13
     kinetic-energy cutoff     =     400.0000  Ry
     charge density cutoff     =    1600.0000  Ry
     scf convergence threshold =      1.0E-08
     mixing beta               =       0.2000
     number of iterations used =            8  local-TF  mixing
     Exchange-correlation= SLA  PW   PBX  PBC
                           (   1   4   3   4   0   0   0)

     celldm(1)=   5.670860  celldm(2)=   0.000000  celldm(3)=   0.000000
     celldm(4)=   0.000000  celldm(5)=   0.000000  celldm(6)=   0.000000

     crystal axes: (cart. coord. in units of alat)
               a(1) = (  -0.707107   0.000000   0.707107 )  
               a(2) = (   0.000000   0.707107   0.707107 )  
               a(3) = (  -0.707107   0.707107   0.000000 )  

     reciprocal axes: (cart. coord. in units 2 pi/alat)
               b(1) = ( -0.707107 -0.707107  0.707107 )  
               b(2) = (  0.707107  0.707107  0.707107 )  
               b(3) = ( -0.707107  0.707107 -0.707107 )  


     PseudoPot. # 1 for Ti read from file:
     ../../pseudo/Ti.pbe-spn-kjpaw_psl.1.0.0.UPF
     MD5 check sum: 01f69b0d8ba4438b2e03ac6ea4af1c0b
     Pseudo is Projector augmented-wave + core cor, Zval = 12.0
     Generated using &quot;atomic&quot; code by A. Dal Corso  v.6.2.2
     Shape of augmentation charge: PSQ
     Using radial grid of 1177 points,  6 beta functions with: 
                l(1) =   0
                l(2) =   0
                l(3) =   1
                l(4) =   1
                l(5) =   2
                l(6) =   2
     Q(r) pseudized with 0 coefficients 


     PseudoPot. # 2 for N  read from file:
     ../../pseudo/N.pbe-n-kjpaw_psl.1.0.0.UPF
     MD5 check sum: 14c48229446f9f2d411169a3abcbc3fa
     Pseudo is Projector augmented-wave + core cor, Zval =  5.0
     Generated using &quot;atomic&quot; code by A. Dal Corso  v.6.3
     Shape of augmentation charge: PSQ
     Using radial grid of 1085 points,  4 beta functions with: 
                l(1) =   0
                l(2) =   0
                l(3) =   1
                l(4) =   1
     Q(r) pseudized with 0 coefficients 


     atomic species   valence    mass     pseudopotential
        Ti            12.00    47.86700     Ti( 1.00)
        N              5.00    14.00700     N ( 1.00)

     48 Sym. Ops., with inversion, found



   Cartesian axes

     site n.     atom                  positions (alat units)
         1           Ti  tau(   1) = (   0.0000000   0.0000000   0.0000000  )
         2           N   tau(   2) = (  -0.7071068   0.7071068   0.7071068  )

     number of k points=   145  Gaussian smearing, width (Ry)=  0.0050

     Number of k-points >= 100: set verbosity='high' to print them.

     Dense  grid:   139535 G-vectors     FFT dimensions: (  75,  75,  75)

     Estimated max dynamical RAM per process >      42.05 MB

     Estimated total dynamical RAM >       1.28 GB

     Initial potential from superposition of free atoms

     starting charge      16.9985, renormalised to      17.0000
     Starting wfcs are   14 randomized atomic wfcs
     Checking if some PAW data can be deallocated... 

     total cpu time spent up to now is        1.5 secs

     Self-consistent Calculation

     iteration #  1     ecut=   400.00 Ry     beta= 0.20
     Davidson diagonalization with overlap
     ethr =  1.00E-02,  avg # of iterations =  2.0

     total cpu time spent up to now is        3.7 secs

     total energy              =    -212.23728582 Ry
     estimated scf accuracy    <       0.72433835 Ry

     iteration #  2     ecut=   400.00 Ry     beta= 0.20
     Davidson diagonalization with overlap
     ethr =  4.26E-03,  avg # of iterations =  1.0

     total cpu time spent up to now is        5.6 secs

     total energy              =    -212.10467996 Ry
     estimated scf accuracy    <       0.36026496 Ry

     iteration #  3     ecut=   400.00 Ry     beta= 0.20
     Davidson diagonalization with overlap
     ethr =  2.12E-03,  avg # of iterations =  2.0

     total cpu time spent up to now is        7.7 secs

     total energy              =    -212.17015355 Ry
     estimated scf accuracy    <       0.01138309 Ry

     iteration #  4     ecut=   400.00 Ry     beta= 0.20
     Davidson diagonalization with overlap
     ethr =  6.70E-05,  avg # of iterations =  2.0

     total cpu time spent up to now is        9.9 secs

     total energy              =    -212.17006782 Ry
     estimated scf accuracy    <       0.01012961 Ry

     iteration #  5     ecut=   400.00 Ry     beta= 0.20
     Davidson diagonalization with overlap
     ethr =  5.96E-05,  avg # of iterations =  1.6

     total cpu time spent up to now is       11.9 secs

     total energy              =    -212.17167738 Ry
     estimated scf accuracy    <       0.00035298 Ry

     iteration #  6     ecut=   400.00 Ry     beta= 0.20
     Davidson diagonalization with overlap
     ethr =  2.08E-06,  avg # of iterations =  2.0

     total cpu time spent up to now is       14.0 secs

     total energy              =    -212.17159137 Ry
     estimated scf accuracy    <       0.00023955 Ry

     iteration #  7     ecut=   400.00 Ry     beta= 0.20
     Davidson diagonalization with overlap
     ethr =  1.41E-06,  avg # of iterations =  1.6

     total cpu time spent up to now is       16.0 secs

     total energy              =    -212.17160868 Ry
     estimated scf accuracy    <       0.00001012 Ry

     iteration #  8     ecut=   400.00 Ry     beta= 0.20
     Davidson diagonalization with overlap
     ethr =  5.95E-08,  avg # of iterations =  2.2

     total cpu time spent up to now is       18.3 secs

     total energy              =    -212.17160962 Ry
     estimated scf accuracy    <       0.00000455 Ry

     iteration #  9     ecut=   400.00 Ry     beta= 0.20
     Davidson diagonalization with overlap
     ethr =  2.68E-08,  avg # of iterations =  2.0

     total cpu time spent up to now is       20.4 secs

     total energy              =    -212.17161069 Ry
     estimated scf accuracy    <       0.00000234 Ry

     iteration # 10     ecut=   400.00 Ry     beta= 0.20
     Davidson diagonalization with overlap
     ethr =  1.38E-08,  avg # of iterations =  1.7

     total cpu time spent up to now is       22.4 secs

     total energy              =    -212.17161105 Ry
     estimated scf accuracy    <       0.00000004 Ry

     iteration # 11     ecut=   400.00 Ry     beta= 0.20
     Davidson diagonalization with overlap
     ethr =  2.38E-10,  avg # of iterations =  2.0

     total cpu time spent up to now is       24.6 secs

     total energy              =    -212.17161106 Ry
     estimated scf accuracy    <       0.00000004 Ry

     iteration # 12     ecut=   400.00 Ry     beta= 0.20
     Davidson diagonalization with overlap
     ethr =  2.33E-10,  avg # of iterations =  1.6

     total cpu time spent up to now is       26.6 secs

     End of self-consistent calculation

     Number of k-points >= 100: set verbosity='high' to print the bands.

     the Fermi energy is    17.1453 ev

!    total energy              =    -212.17161106 Ry
     total all-electron energy =     -1817.393319 Ry
     estimated scf accuracy    <          6.8E-10 Ry
     smearing contrib. (-TS)   =      -0.00022035 Ry
     internal energy E=F+TS    =    -212.17139071 Ry

     The total energy is F=E-TS. E is the sum of the following terms:
     one-electron contribution =     -24.38650598 Ry
     hartree contribution      =      22.87786302 Ry
     xc contribution           =     -24.43358431 Ry
     ewald contribution        =    -112.92161733 Ry
     one-center paw contrib.   =     -73.30754611 Ry

     convergence has been achieved in  12 iterations

     Forces acting on atoms (cartesian axes, Ry/au):

     atom    1 type  1   force =     0.00000000    0.00000000   -0.00000000
     atom    2 type  2   force =    -0.00000000   -0.00000000    0.00000000

     Total force =     0.000000     Total SCF correction =     0.000000


     Computing stress (Cartesian axis) and pressure

          total   stress  (Ry/bohr**3)                   (kbar)     P=       21.68
   0.00014738   0.00000000   0.00000000           21.68        0.00        0.00
   0.00000000   0.00014738  -0.00000000            0.00       21.68       -0.00
   0.00000000  -0.00000000   0.00014738            0.00       -0.00       21.68


     Writing all to output data dir ../output/TiN.save/
 
     init_run     :      1.02s CPU      1.12s WALL (       1 calls)
     electrons    :     24.31s CPU     25.13s WALL (       1 calls)
     forces       :      0.19s CPU      0.20s WALL (       1 calls)
     stress       :      0.64s CPU      0.67s WALL (       1 calls)

     Called by init_run:
     wfcinit      :      0.76s CPU      0.78s WALL (       1 calls)
     potinit      :      0.05s CPU      0.11s WALL (       1 calls)
     hinit0       :      0.09s CPU      0.09s WALL (       1 calls)

     Called by electrons:
     c_bands      :     19.40s CPU     19.93s WALL (      12 calls)
     sum_band     :      4.07s CPU      4.22s WALL (      12 calls)
     v_of_rho     :      0.16s CPU      0.16s WALL (      13 calls)
     newd         :      0.17s CPU      0.24s WALL (      13 calls)
     PAW_pot      :      0.39s CPU      0.40s WALL (      13 calls)
     mix_rho      :      0.16s CPU      0.17s WALL (      12 calls)

     Called by c_bands:
     init_us_2    :      0.63s CPU      0.65s WALL (    1971 calls)
     init_us_2:cp :      0.62s CPU      0.64s WALL (    1971 calls)
     cegterg      :     17.48s CPU     17.86s WALL (     876 calls)

     Called by *egterg:
     cdiaghg      :      0.62s CPU      0.64s WALL (    2453 calls)
     h_psi        :     15.90s CPU     16.23s WALL (    2526 calls)
     s_psi        :      0.20s CPU      0.20s WALL (    2526 calls)
     g_psi        :      0.08s CPU      0.08s WALL (    1577 calls)

     Called by h_psi:
     h_psi:calbec :      0.43s CPU      0.44s WALL (    2526 calls)
     vloc_psi     :     15.14s CPU     15.45s WALL (    2526 calls)
     add_vuspsi   :      0.22s CPU      0.23s WALL (    2526 calls)

     General routines
     calbec       :      0.62s CPU      0.63s WALL (    3767 calls)
     fft          :      0.09s CPU      0.09s WALL (     168 calls)
     ffts         :      0.09s CPU      0.10s WALL (     219 calls)
     fftw         :     16.49s CPU     16.83s WALL (   63598 calls)
 
     Parallel routines
 
     PWSCF        :     26.62s CPU     28.65s WALL

 
   This run was terminated on:  11:18:55   6May2026            

=------------------------------------------------------------------------------=
   JOB DONE.
=------------------------------------------------------------------------------=
