
     Program PWSCF v.7.1 starts on  6May2026 at 11:21:26 

     This program is part of the open-source Quantum ESPRESSO suite
     for quantum simulation of materials; please cite
         "P. Giannozzi et al., J. Phys.:Condens. Matter 21 395502 (2009);
         "P. Giannozzi et al., J. Phys.:Condens. Matter 29 465901 (2017);
         "P. Giannozzi et al., J. Chem. Phys. 152 154105 (2020);
          URL http://www.quantum-espresso.org", 
     in publications or presentations arising from this work. More details at
     http://www.quantum-espresso.org/quote

     Parallel version (MPI & OpenMP), running on      32 processor cores
     Number of MPI processes:                32
     Threads/MPI process:                     1

     MPI processes distributed on     1 nodes
     91304 MiB available memory on the printing compute node when the environment starts
 
     Reading input from TiN_scfcutoff30.in

     Current dimensions of program PWSCF are:
     Max number of different atomic species (ntypx) = 10
     Max number of k-points (npk) = 150000
     Max angular momentum in pseudopotentials (lmaxx) =  4
     file Ti.pbe-spn-kjpaw_psl.1.0.0.UPF: wavefunction(s)  3S 3P 3D renormalized
     file N.pbe-n-kjpaw_psl.1.0.0.UPF: wavefunction(s)  2S renormalized
     Message from routine setup:
     using ibrav=0 with symmetry is DISCOURAGED, use correct ibrav instead
 
     K-points division:     npool     =       2
     R & G space division:  proc/nbgrp/npool/nimage =      16
     Subspace diagonalization in iterative solution of the eigenvalue problem:
     a serial algorithm will be used

 
     Parallelization info
     --------------------
     sticks:   dense  smooth     PW     G-vecs:    dense   smooth      PW
     Min          16      16      5                  177      177      36
     Max          19      19      6                  178      178      41
     Sum         265     265     91                 2837     2837     609
 
     Using Slab Decomposition
 


     bravais-lattice index     =            0
     lattice parameter (alat)  =       5.6709  a.u.
     unit-cell volume          =     128.9531 (a.u.)^3
     number of atoms/cell      =            2
     number of atomic types    =            2
     number of electrons       =        17.00
     number of Kohn-Sham states=           13
     kinetic-energy cutoff     =      30.0000  Ry
     charge density cutoff     =     120.0000  Ry
     scf convergence threshold =      1.0E-08
     mixing beta               =       0.2000
     number of iterations used =            8  local-TF  mixing
     Exchange-correlation= SLA  PW   PBX  PBC
                           (   1   4   3   4   0   0   0)

     celldm(1)=   5.670860  celldm(2)=   0.000000  celldm(3)=   0.000000
     celldm(4)=   0.000000  celldm(5)=   0.000000  celldm(6)=   0.000000

     crystal axes: (cart. coord. in units of alat)
               a(1) = (  -0.707107   0.000000   0.707107 )  
               a(2) = (   0.000000   0.707107   0.707107 )  
               a(3) = (  -0.707107   0.707107   0.000000 )  

     reciprocal axes: (cart. coord. in units 2 pi/alat)
               b(1) = ( -0.707107 -0.707107  0.707107 )  
               b(2) = (  0.707107  0.707107  0.707107 )  
               b(3) = ( -0.707107  0.707107 -0.707107 )  


     PseudoPot. # 1 for Ti read from file:
     ../../pseudo/Ti.pbe-spn-kjpaw_psl.1.0.0.UPF
     MD5 check sum: 01f69b0d8ba4438b2e03ac6ea4af1c0b
     Pseudo is Projector augmented-wave + core cor, Zval = 12.0
     Generated using &quot;atomic&quot; code by A. Dal Corso  v.6.2.2
     Shape of augmentation charge: PSQ
     Using radial grid of 1177 points,  6 beta functions with: 
                l(1) =   0
                l(2) =   0
                l(3) =   1
                l(4) =   1
                l(5) =   2
                l(6) =   2
     Q(r) pseudized with 0 coefficients 


     PseudoPot. # 2 for N  read from file:
     ../../pseudo/N.pbe-n-kjpaw_psl.1.0.0.UPF
     MD5 check sum: 14c48229446f9f2d411169a3abcbc3fa
     Pseudo is Projector augmented-wave + core cor, Zval =  5.0
     Generated using &quot;atomic&quot; code by A. Dal Corso  v.6.3
     Shape of augmentation charge: PSQ
     Using radial grid of 1085 points,  4 beta functions with: 
                l(1) =   0
                l(2) =   0
                l(3) =   1
                l(4) =   1
     Q(r) pseudized with 0 coefficients 


     atomic species   valence    mass     pseudopotential
        Ti            12.00    47.86700     Ti( 1.00)
        N              5.00    14.00700     N ( 1.00)

     48 Sym. Ops., with inversion, found



   Cartesian axes

     site n.     atom                  positions (alat units)
         1           Ti  tau(   1) = (   0.0000000   0.0000000   0.0000000  )
         2           N   tau(   2) = (  -0.7071068   0.7071068   0.7071068  )

     number of k points=   145  Gaussian smearing, width (Ry)=  0.0050

     Number of k-points >= 100: set verbosity='high' to print them.

     Dense  grid:     2837 G-vectors     FFT dimensions: (  20,  20,  20)

     Estimated max dynamical RAM per process >       2.50 MB

     Estimated total dynamical RAM >      79.32 MB

     Check: negative core charge=   -0.000369

     Initial potential from superposition of free atoms

     starting charge      16.9985, renormalised to      17.0000
     Starting wfcs are   14 randomized atomic wfcs
     Checking if some PAW data can be deallocated... 

     total cpu time spent up to now is        0.5 secs

     Self-consistent Calculation

     iteration #  1     ecut=    30.00 Ry     beta= 0.20
     Davidson diagonalization with overlap
     ethr =  1.00E-02,  avg # of iterations =  2.0

     total cpu time spent up to now is        0.8 secs

     total energy              =    -212.15709839 Ry
     estimated scf accuracy    <       0.75672684 Ry

     iteration #  2     ecut=    30.00 Ry     beta= 0.20
     Davidson diagonalization with overlap
     ethr =  4.45E-03,  avg # of iterations =  1.0

     total cpu time spent up to now is        1.1 secs

     total energy              =    -212.00309850 Ry
     estimated scf accuracy    <       0.39456713 Ry

     iteration #  3     ecut=    30.00 Ry     beta= 0.20
     Davidson diagonalization with overlap
     ethr =  2.32E-03,  avg # of iterations =  2.0

     total cpu time spent up to now is        1.4 secs

     total energy              =    -212.07552576 Ry
     estimated scf accuracy    <       0.01379316 Ry

     iteration #  4     ecut=    30.00 Ry     beta= 0.20
     Davidson diagonalization with overlap
     ethr =  8.11E-05,  avg # of iterations =  2.1

     total cpu time spent up to now is        1.7 secs

     total energy              =    -212.07400707 Ry
     estimated scf accuracy    <       0.01630390 Ry

     iteration #  5     ecut=    30.00 Ry     beta= 0.20
     Davidson diagonalization with overlap
     ethr =  8.11E-05,  avg # of iterations =  1.9

     total cpu time spent up to now is        2.1 secs

     total energy              =    -212.07743786 Ry
     estimated scf accuracy    <       0.00116488 Ry

     iteration #  6     ecut=    30.00 Ry     beta= 0.20
     Davidson diagonalization with overlap
     ethr =  6.85E-06,  avg # of iterations =  1.4

     total cpu time spent up to now is        2.4 secs

     total energy              =    -212.07734210 Ry
     estimated scf accuracy    <       0.00037118 Ry

     iteration #  7     ecut=    30.00 Ry     beta= 0.20
     Davidson diagonalization with overlap
     ethr =  2.18E-06,  avg # of iterations =  1.6

     total cpu time spent up to now is        2.7 secs

     total energy              =    -212.07739209 Ry
     estimated scf accuracy    <       0.00000396 Ry

     iteration #  8     ecut=    30.00 Ry     beta= 0.20
     Davidson diagonalization with overlap
     ethr =  2.33E-08,  avg # of iterations =  1.7

     total cpu time spent up to now is        3.0 secs

     total energy              =    -212.07739180 Ry
     estimated scf accuracy    <       0.00000217 Ry

     iteration #  9     ecut=    30.00 Ry     beta= 0.20
     Davidson diagonalization with overlap
     ethr =  1.28E-08,  avg # of iterations =  1.0

     total cpu time spent up to now is        3.2 secs

     total energy              =    -212.07739146 Ry
     estimated scf accuracy    <       0.00000146 Ry

     iteration # 10     ecut=    30.00 Ry     beta= 0.20
     Davidson diagonalization with overlap
     ethr =  8.59E-09,  avg # of iterations =  1.2

     total cpu time spent up to now is        3.5 secs

     total energy              =    -212.07739151 Ry
     estimated scf accuracy    <       0.00000014 Ry

     iteration # 11     ecut=    30.00 Ry     beta= 0.20
     Davidson diagonalization with overlap
     ethr =  8.20E-10,  avg # of iterations =  2.0

     total cpu time spent up to now is        3.9 secs

     total energy              =    -212.07739154 Ry
     estimated scf accuracy    <       0.00000002 Ry

     iteration # 12     ecut=    30.00 Ry     beta= 0.20
     Davidson diagonalization with overlap
     ethr =  1.40E-10,  avg # of iterations =  1.7

     total cpu time spent up to now is        4.2 secs

     End of self-consistent calculation

     Number of k-points >= 100: set verbosity='high' to print the bands.

     the Fermi energy is    17.4159 ev

!    total energy              =    -212.07739155 Ry
     total all-electron energy =     -1817.299100 Ry
     estimated scf accuracy    <          4.5E-10 Ry
     smearing contrib. (-TS)   =      -0.00020856 Ry
     internal energy E=F+TS    =    -212.07718299 Ry

     The total energy is F=E-TS. E is the sum of the following terms:
     one-electron contribution =     -24.07748068 Ry
     hartree contribution      =      22.62018873 Ry
     xc contribution           =     -24.39091900 Ry
     ewald contribution        =    -112.92161735 Ry
     one-center paw contrib.   =     -73.30735469 Ry

     convergence has been achieved in  12 iterations

     Forces acting on atoms (cartesian axes, Ry/au):

     atom    1 type  1   force =    -0.00000000    0.00000000   -0.00000000
     atom    2 type  2   force =    -0.00000000    0.00000000   -0.00000000

     Total force =     0.000000     Total SCF correction =     0.000000


     Computing stress (Cartesian axis) and pressure

          total   stress  (Ry/bohr**3)                   (kbar)     P=     -456.49
  -0.00310316   0.00000000  -0.00000000         -456.49        0.00       -0.00
  -0.00000000  -0.00310316   0.00000000           -0.00     -456.49        0.00
  -0.00000000   0.00000000  -0.00310316           -0.00        0.00     -456.49


     Writing all to output data dir ../output/TiN.save/
 
     init_run     :      0.15s CPU      0.19s WALL (       1 calls)
     electrons    :      3.38s CPU      3.73s WALL (       1 calls)
     forces       :      0.02s CPU      0.02s WALL (       1 calls)
     stress       :      0.04s CPU      0.04s WALL (       1 calls)

     Called by init_run:
     wfcinit      :      0.08s CPU      0.11s WALL (       1 calls)
     potinit      :      0.03s CPU      0.04s WALL (       1 calls)
     hinit0       :      0.02s CPU      0.03s WALL (       1 calls)

     Called by electrons:
     c_bands      :      2.53s CPU      2.81s WALL (      12 calls)
     sum_band     :      0.45s CPU      0.49s WALL (      12 calls)
     v_of_rho     :      0.01s CPU      0.01s WALL (      13 calls)
     newd         :      0.01s CPU      0.01s WALL (      13 calls)
     PAW_pot      :      0.38s CPU      0.39s WALL (      13 calls)
     mix_rho      :      0.02s CPU      0.02s WALL (      12 calls)

     Called by c_bands:
     init_us_2    :      0.03s CPU      0.03s WALL (    1971 calls)
     init_us_2:cp :      0.02s CPU      0.03s WALL (    1971 calls)
     cegterg      :      2.38s CPU      2.64s WALL (     876 calls)

     Called by *egterg:
     cdiaghg      :      0.48s CPU      0.52s WALL (    2307 calls)
     h_psi        :      1.68s CPU      1.87s WALL (    2380 calls)
     s_psi        :      0.02s CPU      0.02s WALL (    2380 calls)
     g_psi        :      0.01s CPU      0.01s WALL (    1431 calls)

     Called by h_psi:
     h_psi:calbec :      0.06s CPU      0.07s WALL (    2380 calls)
     vloc_psi     :      1.56s CPU      1.74s WALL (    2380 calls)
     add_vuspsi   :      0.02s CPU      0.03s WALL (    2380 calls)

     General routines
     calbec       :      0.09s CPU      0.10s WALL (    3621 calls)
     fft          :      0.01s CPU      0.01s WALL (     168 calls)
     ffts         :      0.01s CPU      0.01s WALL (     209 calls)
     fftw         :      1.71s CPU      1.91s WALL (   62050 calls)
 
     Parallel routines
 
     PWSCF        :      3.89s CPU      4.95s WALL

 
   This run was terminated on:  11:21:31   6May2026            

=------------------------------------------------------------------------------=
   JOB DONE.
=------------------------------------------------------------------------------=
