
     Program PWSCF v.7.1 starts on  6May2026 at 14:31:46 

     This program is part of the open-source Quantum ESPRESSO suite
     for quantum simulation of materials; please cite
         "P. Giannozzi et al., J. Phys.:Condens. Matter 21 395502 (2009);
         "P. Giannozzi et al., J. Phys.:Condens. Matter 29 465901 (2017);
         "P. Giannozzi et al., J. Chem. Phys. 152 154105 (2020);
          URL http://www.quantum-espresso.org", 
     in publications or presentations arising from this work. More details at
     http://www.quantum-espresso.org/quote

     Parallel version (MPI & OpenMP), running on      32 processor cores
     Number of MPI processes:                32
     Threads/MPI process:                     1

     MPI processes distributed on     1 nodes
     91471 MiB available memory on the printing compute node when the environment starts
 
     Reading input from TiN_scfkpoint8.in

     Current dimensions of program PWSCF are:
     Max number of different atomic species (ntypx) = 10
     Max number of k-points (npk) = 150000
     Max angular momentum in pseudopotentials (lmaxx) =  4
     file Ti.pbe-spn-kjpaw_psl.1.0.0.UPF: wavefunction(s)  3S 3P 3D renormalized
     file N.pbe-n-kjpaw_psl.1.0.0.UPF: wavefunction(s)  2S renormalized
     Message from routine setup:
     using ibrav=0 with symmetry is DISCOURAGED, use correct ibrav instead
 
     K-points division:     npool     =       2
     R & G space division:  proc/nbgrp/npool/nimage =      16
     Subspace diagonalization in iterative solution of the eigenvalue problem:
     a serial algorithm will be used

 
     Parallelization info
     --------------------
     sticks:   dense  smooth     PW     G-vecs:    dense   smooth      PW
     Min         111     111     31                 3076     3076     475
     Max         112     112     32                 3078     3078     478
     Sum        1777    1777    511                49229    49229    7631
 
     Using Slab Decomposition
 


     bravais-lattice index     =            0
     lattice parameter (alat)  =       5.6709  a.u.
     unit-cell volume          =     128.9531 (a.u.)^3
     number of atoms/cell      =            2
     number of atomic types    =            2
     number of electrons       =        17.00
     number of Kohn-Sham states=           13
     kinetic-energy cutoff     =     200.0000  Ry
     charge density cutoff     =     800.0000  Ry
     scf convergence threshold =      1.0E-08
     mixing beta               =       0.2000
     number of iterations used =            8  local-TF  mixing
     Exchange-correlation= SLA  PW   PBX  PBC
                           (   1   4   3   4   0   0   0)

     celldm(1)=   5.670860  celldm(2)=   0.000000  celldm(3)=   0.000000
     celldm(4)=   0.000000  celldm(5)=   0.000000  celldm(6)=   0.000000

     crystal axes: (cart. coord. in units of alat)
               a(1) = (  -0.707107   0.000000   0.707107 )  
               a(2) = (   0.000000   0.707107   0.707107 )  
               a(3) = (  -0.707107   0.707107   0.000000 )  

     reciprocal axes: (cart. coord. in units 2 pi/alat)
               b(1) = ( -0.707107 -0.707107  0.707107 )  
               b(2) = (  0.707107  0.707107  0.707107 )  
               b(3) = ( -0.707107  0.707107 -0.707107 )  


     PseudoPot. # 1 for Ti read from file:
     ../../pseudo/Ti.pbe-spn-kjpaw_psl.1.0.0.UPF
     MD5 check sum: 01f69b0d8ba4438b2e03ac6ea4af1c0b
     Pseudo is Projector augmented-wave + core cor, Zval = 12.0
     Generated using &quot;atomic&quot; code by A. Dal Corso  v.6.2.2
     Shape of augmentation charge: PSQ
     Using radial grid of 1177 points,  6 beta functions with: 
                l(1) =   0
                l(2) =   0
                l(3) =   1
                l(4) =   1
                l(5) =   2
                l(6) =   2
     Q(r) pseudized with 0 coefficients 


     PseudoPot. # 2 for N  read from file:
     ../../pseudo/N.pbe-n-kjpaw_psl.1.0.0.UPF
     MD5 check sum: 14c48229446f9f2d411169a3abcbc3fa
     Pseudo is Projector augmented-wave + core cor, Zval =  5.0
     Generated using &quot;atomic&quot; code by A. Dal Corso  v.6.3
     Shape of augmentation charge: PSQ
     Using radial grid of 1085 points,  4 beta functions with: 
                l(1) =   0
                l(2) =   0
                l(3) =   1
                l(4) =   1
     Q(r) pseudized with 0 coefficients 


     atomic species   valence    mass     pseudopotential
        Ti            12.00    47.86700     Ti( 1.00)
        N              5.00    14.00700     N ( 1.00)

     48 Sym. Ops., with inversion, found



   Cartesian axes

     site n.     atom                  positions (alat units)
         1           Ti  tau(   1) = (   0.0000000   0.0000000   0.0000000  )
         2           N   tau(   2) = (  -0.7071068   0.7071068   0.7071068  )

     number of k points=    29  Gaussian smearing, width (Ry)=  0.0050
                       cart. coord. in units 2pi/alat
        k(    1) = (   0.0000000   0.0000000   0.0000000), wk =   0.0039062
        k(    2) = (  -0.0883883   0.0883883  -0.0883883), wk =   0.0312500
        k(    3) = (  -0.1767767   0.1767767  -0.1767767), wk =   0.0312500
        k(    4) = (  -0.2651650   0.2651650  -0.2651650), wk =   0.0312500
        k(    5) = (   0.3535534  -0.3535534   0.3535534), wk =   0.0156250
        k(    6) = (   0.0000000   0.1767767   0.0000000), wk =   0.0234375
        k(    7) = (  -0.0883883   0.2651650  -0.0883883), wk =   0.0937500
        k(    8) = (  -0.1767767   0.3535534  -0.1767767), wk =   0.0937500
        k(    9) = (   0.4419417  -0.2651650   0.4419417), wk =   0.0937500
        k(   10) = (   0.3535534  -0.1767767   0.3535534), wk =   0.0937500
        k(   11) = (   0.2651650  -0.0883883   0.2651650), wk =   0.0937500
        k(   12) = (   0.1767767   0.0000000   0.1767767), wk =   0.0468750
        k(   13) = (   0.0000000   0.3535534   0.0000000), wk =   0.0234375
        k(   14) = (  -0.0883883   0.4419417  -0.0883883), wk =   0.0937500
        k(   15) = (   0.5303301  -0.1767767   0.5303301), wk =   0.0937500
        k(   16) = (   0.4419417  -0.0883883   0.4419417), wk =   0.0937500
        k(   17) = (   0.3535534   0.0000000   0.3535534), wk =   0.0468750
        k(   18) = (   0.0000000   0.5303301   0.0000000), wk =   0.0234375
        k(   19) = (   0.6187184  -0.0883883   0.6187184), wk =   0.0937500
        k(   20) = (   0.5303301   0.0000000   0.5303301), wk =   0.0468750
        k(   21) = (   0.0000000  -0.7071068   0.0000000), wk =   0.0117188
        k(   22) = (  -0.1767767   0.3535534   0.0000000), wk =   0.0937500
        k(   23) = (   0.4419417  -0.2651650   0.6187184), wk =   0.1875000
        k(   24) = (   0.3535534  -0.1767767   0.5303301), wk =   0.0937500
        k(   25) = (   0.5303301  -0.1767767   0.7071068), wk =   0.0937500
        k(   26) = (   0.4419417  -0.0883883   0.6187184), wk =   0.1875000
        k(   27) = (   0.3535534   0.0000000   0.5303301), wk =   0.0937500
        k(   28) = (  -0.1767767  -0.7071068  -0.0000000), wk =   0.0468750
        k(   29) = (  -0.3535534  -0.7071068   0.0000000), wk =   0.0234375

     Dense  grid:    49229 G-vectors     FFT dimensions: (  54,  54,  54)

     Estimated max dynamical RAM per process >      12.82 MB

     Estimated total dynamical RAM >     398.06 MB

     Check: negative core charge=   -0.000002

     Initial potential from superposition of free atoms

     starting charge      16.9985, renormalised to      17.0000
     Starting wfcs are   14 randomized atomic wfcs
     Checking if some PAW data can be deallocated... 

     total cpu time spent up to now is        0.5 secs

     Self-consistent Calculation

     iteration #  1     ecut=   200.00 Ry     beta= 0.20
     Davidson diagonalization with overlap
     ethr =  1.00E-02,  avg # of iterations =  2.0

     total cpu time spent up to now is        0.7 secs

     total energy              =    -212.23627518 Ry
     estimated scf accuracy    <       0.72739096 Ry

     iteration #  2     ecut=   200.00 Ry     beta= 0.20
     Davidson diagonalization with overlap
     ethr =  4.28E-03,  avg # of iterations =  1.0

     total cpu time spent up to now is        0.9 secs

     total energy              =    -212.10231343 Ry
     estimated scf accuracy    <       0.36227700 Ry

     iteration #  3     ecut=   200.00 Ry     beta= 0.20
     Davidson diagonalization with overlap
     ethr =  2.13E-03,  avg # of iterations =  2.0

     total cpu time spent up to now is        1.2 secs

     total energy              =    -212.16872782 Ry
     estimated scf accuracy    <       0.01250929 Ry

     iteration #  4     ecut=   200.00 Ry     beta= 0.20
     Davidson diagonalization with overlap
     ethr =  7.36E-05,  avg # of iterations =  2.0

     total cpu time spent up to now is        1.4 secs

     total energy              =    -212.16913885 Ry
     estimated scf accuracy    <       0.01058166 Ry

     iteration #  5     ecut=   200.00 Ry     beta= 0.20
     Davidson diagonalization with overlap
     ethr =  6.22E-05,  avg # of iterations =  1.6

     total cpu time spent up to now is        1.7 secs

     total energy              =    -212.17073587 Ry
     estimated scf accuracy    <       0.00028147 Ry

     iteration #  6     ecut=   200.00 Ry     beta= 0.20
     Davidson diagonalization with overlap
     ethr =  1.66E-06,  avg # of iterations =  2.0

     total cpu time spent up to now is        1.9 secs

     total energy              =    -212.17064512 Ry
     estimated scf accuracy    <       0.00025052 Ry

     iteration #  7     ecut=   200.00 Ry     beta= 0.20
     Davidson diagonalization with overlap
     ethr =  1.47E-06,  avg # of iterations =  1.6

     total cpu time spent up to now is        2.1 secs

     total energy              =    -212.17066890 Ry
     estimated scf accuracy    <       0.00000692 Ry

     iteration #  8     ecut=   200.00 Ry     beta= 0.20
     Davidson diagonalization with overlap
     ethr =  4.07E-08,  avg # of iterations =  1.8

     total cpu time spent up to now is        2.4 secs

     total energy              =    -212.17067088 Ry
     estimated scf accuracy    <       0.00000015 Ry

     iteration #  9     ecut=   200.00 Ry     beta= 0.20
     Davidson diagonalization with overlap
     ethr =  9.02E-10,  avg # of iterations =  3.0

     total cpu time spent up to now is        2.7 secs

     total energy              =    -212.17066870 Ry
     estimated scf accuracy    <       0.00000884 Ry

     iteration # 10     ecut=   200.00 Ry     beta= 0.20
     Davidson diagonalization with overlap
     ethr =  9.02E-10,  avg # of iterations =  2.8

     total cpu time spent up to now is        2.9 secs

     total energy              =    -212.17067008 Ry
     estimated scf accuracy    <       0.00000001 Ry

     iteration # 11     ecut=   200.00 Ry     beta= 0.20
     Davidson diagonalization with overlap
     ethr =  8.14E-11,  avg # of iterations =  2.0

     total cpu time spent up to now is        3.2 secs

     total energy              =    -212.17067007 Ry
     estimated scf accuracy    <       0.00000008 Ry

     iteration # 12     ecut=   200.00 Ry     beta= 0.20
     Davidson diagonalization with overlap
     ethr =  8.14E-11,  avg # of iterations =  2.0

     total cpu time spent up to now is        3.4 secs

     End of self-consistent calculation

          k = 0.0000 0.0000 0.0000 (  6183 PWs)   bands (ev):

   -40.7031 -16.6954 -16.6954 -16.6954   0.0141  15.0850  15.0850  15.0850
    16.5261  16.5261  16.5261  17.7273  17.7273

          k =-0.0884 0.0884-0.0884 (  6144 PWs)   bands (ev):

   -40.6891 -16.7940 -16.7036 -16.7036   0.3140  13.7141  14.0954  14.0954
    16.8842  16.8842  17.1146  18.8554  18.8554

          k =-0.1768 0.1768-0.1768 (  6150 PWs)   bands (ev):

   -40.6550 -17.0254 -16.7233 -16.7233   1.0985  11.5820  12.8046  12.8046
    17.6172  17.6172  17.8396  20.7094  20.7094

          k =-0.2652 0.2652-0.2652 (  6153 PWs)   bands (ev):

   -40.6208 -17.2483 -16.7428 -16.7428   2.0264   9.7918  11.9420  11.9420
    18.4394  18.4394  18.7977  22.2397  22.2397

          k = 0.3536-0.3536 0.3536 (  6164 PWs)   bands (ev):

   -40.6065 -17.3384 -16.7508 -16.7508   2.4888   9.0427  11.6438  11.6438
    18.8221  18.8221  19.4878  22.8603  22.8603

          k = 0.0000 0.1768 0.0000 (  6146 PWs)   bands (ev):

   -40.6844 -16.7871 -16.7255 -16.7255   0.3918  12.9487  14.3978  14.3978
    16.0818  17.6323  17.6323  17.8719  19.4193

          k =-0.0884 0.2652-0.0884 (  6150 PWs)   bands (ev):

   -40.6571 -16.9563 -16.7549 -16.7421   0.9494  11.6195  13.2495  13.5442
    16.3221  18.0030  18.3349  19.2464  20.6682

          k =-0.1768 0.3536-0.1768 (  6164 PWs)   bands (ev):

   -40.6229 -17.1683 -16.7745 -16.7717   1.7381  10.3405  12.0732  12.5303
    17.1527  18.6658  19.0217  20.8888  21.9210

          k = 0.4419-0.2652 0.4419 (  6172 PWs)   bands (ev):

   -40.6020 -17.2927 -16.8053 -16.7730   2.3159   9.4690  11.6448  11.8921
    18.1791  18.9107  19.3977  22.2146  22.2622

          k = 0.3536-0.1768 0.3536 (  6164 PWs)   bands (ev):

   -40.6067 -17.2643 -16.8213 -16.7514   2.2145   9.6196  11.7748  11.8764
    18.4420  18.5478  19.2196  21.5333  22.8208

          k = 0.2652-0.0884 0.2652 (  6163 PWs)   bands (ev):

   -40.6343 -17.1022 -16.8062 -16.7220   1.5209  10.7691  12.1956  12.6253
    17.6254  18.0173  18.7792  20.1425  22.1518

          k = 0.1768 0.0000 0.1768 (  6143 PWs)   bands (ev):

   -40.6684 -16.9059 -16.7584 -16.7022   0.7530  12.3558  13.0704  13.6349
    16.9767  17.5869  17.8418  18.8851  20.5993

          k = 0.0000 0.3536 0.0000 (  6126 PWs)   bands (ev):

   -40.6393 -16.9880 -16.7981 -16.7981   1.1244  11.0286  13.8769  13.8769
    15.1533  18.2352  18.9951  18.9951  20.6402

          k =-0.0884 0.4419-0.0884 (  6161 PWs)   bands (ev):

   -40.6119 -17.1152 -16.8430 -16.8275   1.5145  10.6574  12.8537  13.3491
    15.6438  18.8368  19.3672  19.6631  21.2499

          k = 0.5303-0.1768 0.5303 (  6165 PWs)   bands (ev):

   -40.5910 -17.1999 -16.9152 -16.8262   1.9275  10.4734  11.8069  12.5704
    16.7716  19.1340  19.4534  20.9024  21.4663

          k = 0.4419-0.0884 0.4419 (  6165 PWs)   bands (ev):

   -40.5889 -17.1927 -16.9740 -16.7950   2.1366  10.1805  11.6595  12.0434
    18.0688  18.7111  19.2026  20.8662  22.2458

          k = 0.3536 0.0000 0.3536 (  6157 PWs)   bands (ev):

   -40.6069 -17.1494 -16.9325 -16.7519   1.9707  10.2071  11.9164  12.0841
    18.0673  18.8206  18.8990  20.1043  22.7901

          k = 0.0000 0.5303 0.0000 (  6174 PWs)   bands (ev):

   -40.5941 -17.1633 -16.8705 -16.8705   1.4439  10.8774  13.8320  13.8320
    14.3677  18.6210  19.5243  19.5243  20.9846

          k = 0.6187-0.0884 0.6187 (  6166 PWs)   bands (ev):

   -40.5800 -17.1955 -16.9310 -16.8789   1.5677  11.1651  12.6791  13.4372
    15.3172  19.2950  19.5212  19.5760  20.9197

          k = 0.5303 0.0000 0.5303 (  6169 PWs)   bands (ev):

   -40.5778 -17.1364 -17.0467 -16.8478   1.8498  11.3166  11.4280  12.6665
    16.6687  19.1182  19.4486  20.7263  20.8998

          k = 0.0000-0.7071 0.0000 (  6130 PWs)   bands (ev):

   -40.5754 -17.2290 -16.9005 -16.9005   1.4249  11.3213  13.9063  13.9063
    14.0730  18.7883  19.5241  19.5241  20.7416

          k =-0.1768 0.3536 0.0000 (  6172 PWs)   bands (ev):

   -40.6297 -17.0672 -16.8375 -16.7559   1.4391  10.7966  12.6736  12.9031
    16.5734  18.6880  18.8615  19.5594  21.6391

          k = 0.4419-0.2652 0.6187 (  6169 PWs)   bands (ev):

   -40.6022 -17.1833 -16.8954 -16.7861   1.9575  10.2329  11.9244  12.2652
    17.3669  18.9234  19.2839  20.4882  22.2485

          k = 0.3536-0.1768 0.5303 (  6146 PWs)   bands (ev):

   -40.5908 -17.2336 -16.9102 -16.8048   2.1834  10.0033  11.6765  11.9939
    18.1751  18.5124  19.3785  21.3726  22.0434

          k = 0.5303-0.1768 0.7071 (  6174 PWs)   bands (ev):

   -40.5912 -17.1617 -16.9166 -16.8557   1.6955  10.7913  12.5754  12.7089
    16.1448  19.1461  19.4915  19.7642  21.4044

          k = 0.4419-0.0884 0.6187 (  6143 PWs)   bands (ev):

   -40.5797 -17.1471 -17.0034 -16.8694   1.9006  11.0161  11.7170  12.3235
    17.1740  18.8085  19.4960  20.5016  21.2242

          k = 0.3536 0.0000 0.5303 (  6154 PWs)   bands (ev):

   -40.5843 -17.1322 -17.0270 -16.8327   2.0206  10.6108  11.7429  12.0603
    18.1031  18.3020  19.4253  20.3928  21.8669

          k =-0.1768-0.7071-0.0000 (  6150 PWs)   bands (ev):

   -40.5752 -17.1815 -16.9492 -16.9109   1.6480  11.3708  12.4919  12.7044
    16.0305  19.2498  19.5259  19.7247  20.8467

          k =-0.3536-0.7071 0.0000 (  6180 PWs)   bands (ev):

   -40.5750 -17.0659 -17.0659 -16.9212   1.8906  11.6693  11.6693  11.7587
    18.0597  18.0597  19.5277  20.2587  21.0152

     the Fermi energy is    17.1558 ev

!    total energy              =    -212.17067008 Ry
     total all-electron energy =     -1817.392378 Ry
     estimated scf accuracy    <          1.2E-10 Ry
     smearing contrib. (-TS)   =      -0.00040886 Ry
     internal energy E=F+TS    =    -212.17026122 Ry

     The total energy is F=E-TS. E is the sum of the following terms:
     one-electron contribution =     -24.39082985 Ry
     hartree contribution      =      22.88405789 Ry
     xc contribution           =     -24.43436907 Ry
     ewald contribution        =    -112.92161733 Ry
     one-center paw contrib.   =     -73.30750286 Ry

     convergence has been achieved in  12 iterations

     Forces acting on atoms (cartesian axes, Ry/au):

     atom    1 type  1   force =    -0.00000000   -0.00000000    0.00000000
     atom    2 type  2   force =     0.00000000    0.00000000   -0.00000000

     Total force =     0.000000     Total SCF correction =     0.000000


     Computing stress (Cartesian axis) and pressure

          total   stress  (Ry/bohr**3)                   (kbar)     P=       23.71
   0.00016116  -0.00000000  -0.00000000           23.71       -0.00       -0.00
  -0.00000000   0.00016116   0.00000000           -0.00       23.71        0.00
  -0.00000000   0.00000000   0.00016116           -0.00        0.00       23.71


     Writing all to output data dir ../output/TiN.save/
 
     init_run     :      0.20s CPU      0.22s WALL (       1 calls)
     electrons    :      2.87s CPU      3.00s WALL (       1 calls)
     forces       :      0.03s CPU      0.04s WALL (       1 calls)
     stress       :      0.11s CPU      0.11s WALL (       1 calls)

     Called by init_run:
     wfcinit      :      0.07s CPU      0.08s WALL (       1 calls)
     potinit      :      0.04s CPU      0.04s WALL (       1 calls)
     hinit0       :      0.05s CPU      0.06s WALL (       1 calls)

     Called by electrons:
     c_bands      :      1.85s CPU      1.92s WALL (      12 calls)
     sum_band     :      0.45s CPU      0.47s WALL (      12 calls)
     v_of_rho     :      0.06s CPU      0.06s WALL (      13 calls)
     newd         :      0.08s CPU      0.09s WALL (      13 calls)
     PAW_pot      :      0.39s CPU      0.40s WALL (      13 calls)
     mix_rho      :      0.07s CPU      0.07s WALL (      12 calls)

     Called by c_bands:
     init_us_2    :      0.05s CPU      0.05s WALL (     405 calls)
     init_us_2:cp :      0.05s CPU      0.05s WALL (     405 calls)
     cegterg      :      1.68s CPU      1.74s WALL (     180 calls)

     Called by *egterg:
     cdiaghg      :      0.13s CPU      0.13s WALL (     539 calls)
     h_psi        :      1.46s CPU      1.51s WALL (     554 calls)
     s_psi        :      0.02s CPU      0.02s WALL (     554 calls)
     g_psi        :      0.01s CPU      0.01s WALL (     359 calls)

     Called by h_psi:
     h_psi:calbec :      0.04s CPU      0.05s WALL (     554 calls)
     vloc_psi     :      1.38s CPU      1.43s WALL (     554 calls)
     add_vuspsi   :      0.02s CPU      0.02s WALL (     554 calls)

     General routines
     calbec       :      0.06s CPU      0.07s WALL (     809 calls)
     fft          :      0.03s CPU      0.04s WALL (     168 calls)
     ffts         :      0.04s CPU      0.04s WALL (     221 calls)
     fftw         :      1.50s CPU      1.55s WALL (   13664 calls)
 
     Parallel routines
 
     PWSCF        :      3.41s CPU      3.76s WALL

 
   This run was terminated on:  14:31:50   6May2026            

=------------------------------------------------------------------------------=
   JOB DONE.
=------------------------------------------------------------------------------=
