
     Program PWSCF v.7.1 starts on  6May2026 at 14:30:46 

     This program is part of the open-source Quantum ESPRESSO suite
     for quantum simulation of materials; please cite
         "P. Giannozzi et al., J. Phys.:Condens. Matter 21 395502 (2009);
         "P. Giannozzi et al., J. Phys.:Condens. Matter 29 465901 (2017);
         "P. Giannozzi et al., J. Chem. Phys. 152 154105 (2020);
          URL http://www.quantum-espresso.org", 
     in publications or presentations arising from this work. More details at
     http://www.quantum-espresso.org/quote

     Parallel version (MPI & OpenMP), running on      32 processor cores
     Number of MPI processes:                32
     Threads/MPI process:                     1

     MPI processes distributed on     1 nodes
     91484 MiB available memory on the printing compute node when the environment starts
 
     Reading input from TiN_scfkpoint4.in

     Current dimensions of program PWSCF are:
     Max number of different atomic species (ntypx) = 10
     Max number of k-points (npk) = 150000
     Max angular momentum in pseudopotentials (lmaxx) =  4
     file Ti.pbe-spn-kjpaw_psl.1.0.0.UPF: wavefunction(s)  3S 3P 3D renormalized
     file N.pbe-n-kjpaw_psl.1.0.0.UPF: wavefunction(s)  2S renormalized
     Message from routine setup:
     using ibrav=0 with symmetry is DISCOURAGED, use correct ibrav instead
 
     K-points division:     npool     =       2
     R & G space division:  proc/nbgrp/npool/nimage =      16
     Subspace diagonalization in iterative solution of the eigenvalue problem:
     a serial algorithm will be used

 
     Parallelization info
     --------------------
     sticks:   dense  smooth     PW     G-vecs:    dense   smooth      PW
     Min         111     111     31                 3076     3076     461
     Max         112     112     32                 3078     3078     465
     Sum        1777    1777    499                49229    49229    7391
 
     Using Slab Decomposition
 


     bravais-lattice index     =            0
     lattice parameter (alat)  =       5.6709  a.u.
     unit-cell volume          =     128.9531 (a.u.)^3
     number of atoms/cell      =            2
     number of atomic types    =            2
     number of electrons       =        17.00
     number of Kohn-Sham states=           13
     kinetic-energy cutoff     =     200.0000  Ry
     charge density cutoff     =     800.0000  Ry
     scf convergence threshold =      1.0E-08
     mixing beta               =       0.2000
     number of iterations used =            8  local-TF  mixing
     Exchange-correlation= SLA  PW   PBX  PBC
                           (   1   4   3   4   0   0   0)

     celldm(1)=   5.670860  celldm(2)=   0.000000  celldm(3)=   0.000000
     celldm(4)=   0.000000  celldm(5)=   0.000000  celldm(6)=   0.000000

     crystal axes: (cart. coord. in units of alat)
               a(1) = (  -0.707107   0.000000   0.707107 )  
               a(2) = (   0.000000   0.707107   0.707107 )  
               a(3) = (  -0.707107   0.707107   0.000000 )  

     reciprocal axes: (cart. coord. in units 2 pi/alat)
               b(1) = ( -0.707107 -0.707107  0.707107 )  
               b(2) = (  0.707107  0.707107  0.707107 )  
               b(3) = ( -0.707107  0.707107 -0.707107 )  


     PseudoPot. # 1 for Ti read from file:
     ../../pseudo/Ti.pbe-spn-kjpaw_psl.1.0.0.UPF
     MD5 check sum: 01f69b0d8ba4438b2e03ac6ea4af1c0b
     Pseudo is Projector augmented-wave + core cor, Zval = 12.0
     Generated using &quot;atomic&quot; code by A. Dal Corso  v.6.2.2
     Shape of augmentation charge: PSQ
     Using radial grid of 1177 points,  6 beta functions with: 
                l(1) =   0
                l(2) =   0
                l(3) =   1
                l(4) =   1
                l(5) =   2
                l(6) =   2
     Q(r) pseudized with 0 coefficients 


     PseudoPot. # 2 for N  read from file:
     ../../pseudo/N.pbe-n-kjpaw_psl.1.0.0.UPF
     MD5 check sum: 14c48229446f9f2d411169a3abcbc3fa
     Pseudo is Projector augmented-wave + core cor, Zval =  5.0
     Generated using &quot;atomic&quot; code by A. Dal Corso  v.6.3
     Shape of augmentation charge: PSQ
     Using radial grid of 1085 points,  4 beta functions with: 
                l(1) =   0
                l(2) =   0
                l(3) =   1
                l(4) =   1
     Q(r) pseudized with 0 coefficients 


     atomic species   valence    mass     pseudopotential
        Ti            12.00    47.86700     Ti( 1.00)
        N              5.00    14.00700     N ( 1.00)

     48 Sym. Ops., with inversion, found



   Cartesian axes

     site n.     atom                  positions (alat units)
         1           Ti  tau(   1) = (   0.0000000   0.0000000   0.0000000  )
         2           N   tau(   2) = (  -0.7071068   0.7071068   0.7071068  )

     number of k points=     8  Gaussian smearing, width (Ry)=  0.0050
                       cart. coord. in units 2pi/alat
        k(    1) = (   0.0000000   0.0000000   0.0000000), wk =   0.0312500
        k(    2) = (  -0.1767767   0.1767767  -0.1767767), wk =   0.2500000
        k(    3) = (   0.3535534  -0.3535534   0.3535534), wk =   0.1250000
        k(    4) = (   0.0000000   0.3535534   0.0000000), wk =   0.1875000
        k(    5) = (   0.5303301  -0.1767767   0.5303301), wk =   0.7500000
        k(    6) = (   0.3535534   0.0000000   0.3535534), wk =   0.3750000
        k(    7) = (   0.0000000  -0.7071068   0.0000000), wk =   0.0937500
        k(    8) = (  -0.3535534  -0.7071068   0.0000000), wk =   0.1875000

     Dense  grid:    49229 G-vectors     FFT dimensions: (  54,  54,  54)

     Estimated max dynamical RAM per process >      11.98 MB

     Estimated total dynamical RAM >     371.24 MB

     Check: negative core charge=   -0.000002

     Initial potential from superposition of free atoms

     starting charge      16.9985, renormalised to      17.0000
     Starting wfcs are   14 randomized atomic wfcs
     Checking if some PAW data can be deallocated... 

     total cpu time spent up to now is        0.4 secs

     Self-consistent Calculation

     iteration #  1     ecut=   200.00 Ry     beta= 0.20
     Davidson diagonalization with overlap
     ethr =  1.00E-02,  avg # of iterations =  2.0

     total cpu time spent up to now is        0.5 secs

     total energy              =    -212.23567452 Ry
     estimated scf accuracy    <       0.72951260 Ry

     iteration #  2     ecut=   200.00 Ry     beta= 0.20
     Davidson diagonalization with overlap
     ethr =  4.29E-03,  avg # of iterations =  1.0

     total cpu time spent up to now is        0.6 secs

     total energy              =    -212.09891553 Ry
     estimated scf accuracy    <       0.36643865 Ry

     iteration #  3     ecut=   200.00 Ry     beta= 0.20
     Davidson diagonalization with overlap
     ethr =  2.16E-03,  avg # of iterations =  2.0

     total cpu time spent up to now is        0.7 secs

     total energy              =    -212.16753070 Ry
     estimated scf accuracy    <       0.01176421 Ry

     iteration #  4     ecut=   200.00 Ry     beta= 0.20
     Davidson diagonalization with overlap
     ethr =  6.92E-05,  avg # of iterations =  2.0

     total cpu time spent up to now is        0.8 secs

     total energy              =    -212.16783352 Ry
     estimated scf accuracy    <       0.00913942 Ry

     iteration #  5     ecut=   200.00 Ry     beta= 0.20
     Davidson diagonalization with overlap
     ethr =  5.38E-05,  avg # of iterations =  1.5

     total cpu time spent up to now is        1.0 secs

     total energy              =    -212.16901904 Ry
     estimated scf accuracy    <       0.00017415 Ry

     iteration #  6     ecut=   200.00 Ry     beta= 0.20
     Davidson diagonalization with overlap
     ethr =  1.02E-06,  avg # of iterations =  2.1

     total cpu time spent up to now is        1.1 secs

     total energy              =    -212.16894769 Ry
     estimated scf accuracy    <       0.00021265 Ry

     iteration #  7     ecut=   200.00 Ry     beta= 0.20
     Davidson diagonalization with overlap
     ethr =  1.02E-06,  avg # of iterations =  1.5

     total cpu time spent up to now is        1.2 secs

     total energy              =    -212.16896397 Ry
     estimated scf accuracy    <       0.00001211 Ry

     iteration #  8     ecut=   200.00 Ry     beta= 0.20
     Davidson diagonalization with overlap
     ethr =  7.12E-08,  avg # of iterations =  1.5

     total cpu time spent up to now is        1.3 secs

     total energy              =    -212.16896576 Ry
     estimated scf accuracy    <       0.00000208 Ry

     iteration #  9     ecut=   200.00 Ry     beta= 0.20
     Davidson diagonalization with overlap
     ethr =  1.22E-08,  avg # of iterations =  1.0

     total cpu time spent up to now is        1.4 secs

     total energy              =    -212.16896375 Ry
     estimated scf accuracy    <       0.00000458 Ry

     iteration # 10     ecut=   200.00 Ry     beta= 0.20
     Davidson diagonalization with overlap
     ethr =  1.22E-08,  avg # of iterations =  1.6

     total cpu time spent up to now is        1.5 secs

     total energy              =    -212.16896435 Ry
     estimated scf accuracy    <       0.00000003 Ry

     iteration # 11     ecut=   200.00 Ry     beta= 0.20
     Davidson diagonalization with overlap
     ethr =  1.89E-10,  avg # of iterations =  2.1

     total cpu time spent up to now is        1.6 secs

     total energy              =    -212.16896435 Ry
     estimated scf accuracy    <       0.00000004 Ry

     iteration # 12     ecut=   200.00 Ry     beta= 0.20
     Davidson diagonalization with overlap
     ethr =  1.89E-10,  avg # of iterations =  2.0

     total cpu time spent up to now is        1.7 secs

     End of self-consistent calculation

          k = 0.0000 0.0000 0.0000 (  6183 PWs)   bands (ev):

   -40.7439 -16.7341 -16.7341 -16.7341   0.0315  15.1097  15.1097  15.1097
    16.5026  16.5026  16.5026  17.6988  17.6988

          k =-0.1768 0.1768-0.1768 (  6150 PWs)   bands (ev):

   -40.6960 -17.0627 -16.7619 -16.7619   1.1166  11.5923  12.8131  12.8131
    17.5914  17.5914  17.8249  20.6953  20.6953

          k = 0.3536-0.3536 0.3536 (  6164 PWs)   bands (ev):

   -40.6476 -17.3746 -16.7894 -16.7894   2.5094   9.0494  11.6506  11.6506
    18.7920  18.7920  19.4686  22.8454  22.8454

          k = 0.0000 0.3536 0.0000 (  6126 PWs)   bands (ev):

   -40.6802 -17.0256 -16.8364 -16.8364   1.1431  11.0378  13.8922  13.8922
    15.1332  18.2051  18.9741  18.9741  20.6215

          k = 0.5303-0.1768 0.5303 (  6165 PWs)   bands (ev):

   -40.6321 -17.2367 -16.9531 -16.8645   1.9478  10.4815  11.8149  12.5806
    16.7563  19.1022  19.4278  20.8824  21.4442

          k = 0.3536 0.0000 0.3536 (  6157 PWs)   bands (ev):

   -40.6480 -17.1863 -16.9704 -16.7904   1.9906  10.2155  11.9244  12.0913
    18.0391  18.8095  18.8711  20.0817  22.7736

          k = 0.0000-0.7071 0.0000 (  6130 PWs)   bands (ev):

   -40.6165 -17.2660 -16.9385 -16.9385   1.4454  11.3326  13.9269  13.9269
    14.0549  18.7563  19.4906  19.4906  20.7139

          k =-0.3536-0.7071 0.0000 (  6180 PWs)   bands (ev):

   -40.6162 -17.1034 -17.1034 -16.9590   1.9114  11.6776  11.6776  11.7696
    18.0438  18.0438  19.4942  20.2301  20.9908

     the Fermi energy is    16.8028 ev

!    total energy              =    -212.16896435 Ry
     total all-electron energy =     -1817.390673 Ry
     estimated scf accuracy    <          1.0E-10 Ry
     smearing contrib. (-TS)   =      -0.00066252 Ry
     internal energy E=F+TS    =    -212.16830184 Ry

     The total energy is F=E-TS. E is the sum of the following terms:
     one-electron contribution =     -24.37229747 Ry
     hartree contribution      =      22.86633169 Ry
     xc contribution           =     -24.43272570 Ry
     ewald contribution        =    -112.92161733 Ry
     one-center paw contrib.   =     -73.30799303 Ry

     convergence has been achieved in  12 iterations

     Forces acting on atoms (cartesian axes, Ry/au):

     atom    1 type  1   force =     0.00000000    0.00000000   -0.00000000
     atom    2 type  2   force =    -0.00000000   -0.00000000    0.00000000

     Total force =     0.000000     Total SCF correction =     0.000000


     Computing stress (Cartesian axis) and pressure

          total   stress  (Ry/bohr**3)                   (kbar)     P=       28.23
   0.00019190   0.00000000  -0.00000000           28.23        0.00       -0.00
  -0.00000000   0.00019190  -0.00000000           -0.00       28.23       -0.00
   0.00000000   0.00000000   0.00019190            0.00        0.00       28.23


     Writing all to output data dir ../output/TiN.save/
 
     init_run     :      0.15s CPU      0.17s WALL (       1 calls)
     electrons    :      1.25s CPU      1.30s WALL (       1 calls)
     forces       :      0.03s CPU      0.03s WALL (       1 calls)
     stress       :      0.09s CPU      0.09s WALL (       1 calls)

     Called by init_run:
     wfcinit      :      0.02s CPU      0.03s WALL (       1 calls)
     potinit      :      0.04s CPU      0.05s WALL (       1 calls)
     hinit0       :      0.06s CPU      0.06s WALL (       1 calls)

     Called by electrons:
     c_bands      :      0.47s CPU      0.48s WALL (      12 calls)
     sum_band     :      0.21s CPU      0.21s WALL (      12 calls)
     v_of_rho     :      0.06s CPU      0.06s WALL (      13 calls)
     newd         :      0.08s CPU      0.09s WALL (      13 calls)
     PAW_pot      :      0.39s CPU      0.40s WALL (      13 calls)
     mix_rho      :      0.07s CPU      0.07s WALL (      12 calls)

     Called by c_bands:
     init_us_2    :      0.01s CPU      0.01s WALL (     108 calls)
     init_us_2:cp :      0.01s CPU      0.01s WALL (     108 calls)
     cegterg      :      0.42s CPU      0.44s WALL (      48 calls)

     Called by *egterg:
     cdiaghg      :      0.03s CPU      0.03s WALL (     130 calls)
     h_psi        :      0.37s CPU      0.38s WALL (     134 calls)
     s_psi        :      0.00s CPU      0.00s WALL (     134 calls)
     g_psi        :      0.00s CPU      0.00s WALL (      82 calls)

     Called by h_psi:
     h_psi:calbec :      0.01s CPU      0.01s WALL (     134 calls)
     vloc_psi     :      0.35s CPU      0.36s WALL (     134 calls)
     add_vuspsi   :      0.00s CPU      0.01s WALL (     134 calls)

     General routines
     calbec       :      0.02s CPU      0.02s WALL (     202 calls)
     fft          :      0.03s CPU      0.04s WALL (     168 calls)
     ffts         :      0.04s CPU      0.04s WALL (     219 calls)
     fftw         :      0.39s CPU      0.40s WALL (    3486 calls)
 
     Parallel routines
 
     PWSCF        :      1.68s CPU      1.89s WALL

 
   This run was terminated on:  14:30:48   6May2026            

=------------------------------------------------------------------------------=
   JOB DONE.
=------------------------------------------------------------------------------=
