
     Program PWSCF v.7.1 starts on  6May2026 at 15: 5:52 

     This program is part of the open-source Quantum ESPRESSO suite
     for quantum simulation of materials; please cite
         "P. Giannozzi et al., J. Phys.:Condens. Matter 21 395502 (2009);
         "P. Giannozzi et al., J. Phys.:Condens. Matter 29 465901 (2017);
         "P. Giannozzi et al., J. Chem. Phys. 152 154105 (2020);
          URL http://www.quantum-espresso.org", 
     in publications or presentations arising from this work. More details at
     http://www.quantum-espresso.org/quote

     Parallel version (MPI & OpenMP), running on      32 processor cores
     Number of MPI processes:                32
     Threads/MPI process:                     1

     MPI processes distributed on     1 nodes
     90721 MiB available memory on the printing compute node when the environment starts
 
     Reading input from TiN_scfkpoint40.in

     Current dimensions of program PWSCF are:
     Max number of different atomic species (ntypx) = 10
     Max number of k-points (npk) = 150000
     Max angular momentum in pseudopotentials (lmaxx) =  4
     file Ti.pbe-spn-kjpaw_psl.1.0.0.UPF: wavefunction(s)  3S 3P 3D renormalized
     file N.pbe-n-kjpaw_psl.1.0.0.UPF: wavefunction(s)  2S renormalized
     Message from routine setup:
     using ibrav=0 with symmetry is DISCOURAGED, use correct ibrav instead
 
     K-points division:     npool     =       2
     R & G space division:  proc/nbgrp/npool/nimage =      16
     Subspace diagonalization in iterative solution of the eigenvalue problem:
     a serial algorithm will be used

 
     Parallelization info
     --------------------
     sticks:   dense  smooth     PW     G-vecs:    dense   smooth      PW
     Min         111     111     31                 3076     3076     480
     Max         112     112     32                 3078     3078     485
     Sum        1777    1777    511                49229    49229    7727
 
     Using Slab Decomposition
 


     bravais-lattice index     =            0
     lattice parameter (alat)  =       5.6709  a.u.
     unit-cell volume          =     128.9531 (a.u.)^3
     number of atoms/cell      =            2
     number of atomic types    =            2
     number of electrons       =        17.00
     number of Kohn-Sham states=           13
     kinetic-energy cutoff     =     200.0000  Ry
     charge density cutoff     =     800.0000  Ry
     scf convergence threshold =      1.0E-08
     mixing beta               =       0.2000
     number of iterations used =            8  local-TF  mixing
     Exchange-correlation= SLA  PW   PBX  PBC
                           (   1   4   3   4   0   0   0)

     celldm(1)=   5.670860  celldm(2)=   0.000000  celldm(3)=   0.000000
     celldm(4)=   0.000000  celldm(5)=   0.000000  celldm(6)=   0.000000

     crystal axes: (cart. coord. in units of alat)
               a(1) = (  -0.707107   0.000000   0.707107 )  
               a(2) = (   0.000000   0.707107   0.707107 )  
               a(3) = (  -0.707107   0.707107   0.000000 )  

     reciprocal axes: (cart. coord. in units 2 pi/alat)
               b(1) = ( -0.707107 -0.707107  0.707107 )  
               b(2) = (  0.707107  0.707107  0.707107 )  
               b(3) = ( -0.707107  0.707107 -0.707107 )  


     PseudoPot. # 1 for Ti read from file:
     ../../pseudo/Ti.pbe-spn-kjpaw_psl.1.0.0.UPF
     MD5 check sum: 01f69b0d8ba4438b2e03ac6ea4af1c0b
     Pseudo is Projector augmented-wave + core cor, Zval = 12.0
     Generated using &quot;atomic&quot; code by A. Dal Corso  v.6.2.2
     Shape of augmentation charge: PSQ
     Using radial grid of 1177 points,  6 beta functions with: 
                l(1) =   0
                l(2) =   0
                l(3) =   1
                l(4) =   1
                l(5) =   2
                l(6) =   2
     Q(r) pseudized with 0 coefficients 


     PseudoPot. # 2 for N  read from file:
     ../../pseudo/N.pbe-n-kjpaw_psl.1.0.0.UPF
     MD5 check sum: 14c48229446f9f2d411169a3abcbc3fa
     Pseudo is Projector augmented-wave + core cor, Zval =  5.0
     Generated using &quot;atomic&quot; code by A. Dal Corso  v.6.3
     Shape of augmentation charge: PSQ
     Using radial grid of 1085 points,  4 beta functions with: 
                l(1) =   0
                l(2) =   0
                l(3) =   1
                l(4) =   1
     Q(r) pseudized with 0 coefficients 


     atomic species   valence    mass     pseudopotential
        Ti            12.00    47.86700     Ti( 1.00)
        N              5.00    14.00700     N ( 1.00)

     48 Sym. Ops., with inversion, found



   Cartesian axes

     site n.     atom                  positions (alat units)
         1           Ti  tau(   1) = (   0.0000000   0.0000000   0.0000000  )
         2           N   tau(   2) = (  -0.7071068   0.7071068   0.7071068  )

     number of k points=  1661  Gaussian smearing, width (Ry)=  0.0050

     Number of k-points >= 100: set verbosity='high' to print them.

     Dense  grid:    49229 G-vectors     FFT dimensions: (  54,  54,  54)

     Estimated max dynamical RAM per process >      74.97 MB

     Estimated total dynamical RAM >       2.33 GB

     Check: negative core charge=   -0.000002

     Initial potential from superposition of free atoms

     starting charge      16.9985, renormalised to      17.0000
     Starting wfcs are   14 randomized atomic wfcs
     Checking if some PAW data can be deallocated... 

     total cpu time spent up to now is        4.9 secs

     Self-consistent Calculation

     iteration #  1     ecut=   200.00 Ry     beta= 0.20
     Davidson diagonalization with overlap
     ethr =  1.00E-02,  avg # of iterations =  2.0

     total cpu time spent up to now is       15.7 secs

     total energy              =    -212.23738096 Ry
     estimated scf accuracy    <       0.72377980 Ry

     iteration #  2     ecut=   200.00 Ry     beta= 0.20
     Davidson diagonalization with overlap
     ethr =  4.26E-03,  avg # of iterations =  1.0

     total cpu time spent up to now is       24.7 secs

     total energy              =    -212.10481302 Ry
     estimated scf accuracy    <       0.35982307 Ry

     iteration #  3     ecut=   200.00 Ry     beta= 0.20
     Davidson diagonalization with overlap
     ethr =  2.12E-03,  avg # of iterations =  2.0

     total cpu time spent up to now is       34.7 secs

     total energy              =    -212.17022249 Ry
     estimated scf accuracy    <       0.01120558 Ry

     iteration #  4     ecut=   200.00 Ry     beta= 0.20
     Davidson diagonalization with overlap
     ethr =  6.59E-05,  avg # of iterations =  2.0

     total cpu time spent up to now is       45.5 secs

     total energy              =    -212.17012781 Ry
     estimated scf accuracy    <       0.00991193 Ry

     iteration #  5     ecut=   200.00 Ry     beta= 0.20
     Davidson diagonalization with overlap
     ethr =  5.83E-05,  avg # of iterations =  1.5

     total cpu time spent up to now is       54.9 secs

     total energy              =    -212.17167155 Ry
     estimated scf accuracy    <       0.00031194 Ry

     iteration #  6     ecut=   200.00 Ry     beta= 0.20
     Davidson diagonalization with overlap
     ethr =  1.83E-06,  avg # of iterations =  2.0

     total cpu time spent up to now is       65.0 secs

     total energy              =    -212.17158485 Ry
     estimated scf accuracy    <       0.00023689 Ry

     iteration #  7     ecut=   200.00 Ry     beta= 0.20
     Davidson diagonalization with overlap
     ethr =  1.39E-06,  avg # of iterations =  1.5

     total cpu time spent up to now is       74.5 secs

     total energy              =    -212.17160120 Ry
     estimated scf accuracy    <       0.00001068 Ry

     iteration #  8     ecut=   200.00 Ry     beta= 0.20
     Davidson diagonalization with overlap
     ethr =  6.28E-08,  avg # of iterations =  2.1

     total cpu time spent up to now is       85.5 secs

     total energy              =    -212.17160258 Ry
     estimated scf accuracy    <       0.00000327 Ry

     iteration #  9     ecut=   200.00 Ry     beta= 0.20
     Davidson diagonalization with overlap
     ethr =  1.92E-08,  avg # of iterations =  2.1

     total cpu time spent up to now is       96.5 secs

     total energy              =    -212.17160331 Ry
     estimated scf accuracy    <       0.00000328 Ry

     iteration # 10     ecut=   200.00 Ry     beta= 0.20
     Davidson diagonalization with overlap
     ethr =  1.92E-08,  avg # of iterations =  1.3

     total cpu time spent up to now is      105.9 secs

     total energy              =    -212.17160381 Ry
     estimated scf accuracy    <       0.00000003 Ry

     iteration # 11     ecut=   200.00 Ry     beta= 0.20
     Davidson diagonalization with overlap
     ethr =  1.80E-10,  avg # of iterations =  2.0

     total cpu time spent up to now is      116.4 secs

     End of self-consistent calculation

     Number of k-points >= 100: set verbosity='high' to print the bands.

     the Fermi energy is    17.1340 ev

!    total energy              =    -212.17160381 Ry
     total all-electron energy =     -1817.393312 Ry
     estimated scf accuracy    <          7.7E-09 Ry
     smearing contrib. (-TS)   =      -0.00014435 Ry
     internal energy E=F+TS    =    -212.17145947 Ry

     The total energy is F=E-TS. E is the sum of the following terms:
     one-electron contribution =     -24.38666670 Ry
     hartree contribution      =      22.87796057 Ry
     xc contribution           =     -24.43360299 Ry
     ewald contribution        =    -112.92161733 Ry
     one-center paw contrib.   =     -73.30753302 Ry

     convergence has been achieved in  11 iterations

     Forces acting on atoms (cartesian axes, Ry/au):

     atom    1 type  1   force =    -0.00000000   -0.00000000    0.00000000
     atom    2 type  2   force =     0.00000000    0.00000000   -0.00000000

     Total force =     0.000000     Total SCF correction =     0.000000


     Computing stress (Cartesian axis) and pressure

          total   stress  (Ry/bohr**3)                   (kbar)     P=       21.85
   0.00014856  -0.00000000   0.00000000           21.85       -0.00        0.00
  -0.00000000   0.00014856   0.00000000           -0.00       21.85        0.00
   0.00000000  -0.00000000   0.00014856            0.00       -0.00       21.85


     Writing all to output data dir ../output/TiN.save/
 
     init_run     :      3.87s CPU      4.15s WALL (       1 calls)
     electrons    :    107.06s CPU    111.67s WALL (       1 calls)
     forces       :      0.67s CPU      0.69s WALL (       1 calls)
     stress       :      2.15s CPU      2.17s WALL (       1 calls)

     Called by init_run:
     wfcinit      :      3.72s CPU      3.90s WALL (       1 calls)
     potinit      :      0.05s CPU      0.06s WALL (       1 calls)
     hinit0       :      0.06s CPU      0.12s WALL (       1 calls)

     Called by electrons:
     c_bands      :     89.39s CPU     93.10s WALL (      11 calls)
     sum_band     :     17.13s CPU     17.84s WALL (      11 calls)
     v_of_rho     :      0.06s CPU      0.06s WALL (      12 calls)
     newd         :      0.07s CPU      0.08s WALL (      12 calls)
     PAW_pot      :      0.37s CPU      0.38s WALL (      12 calls)
     mix_rho      :      0.06s CPU      0.07s WALL (      11 calls)

     Called by c_bands:
     init_us_2    :      2.44s CPU      2.57s WALL (   20775 calls)
     init_us_2:cp :      2.35s CPU      2.49s WALL (   20775 calls)
     cegterg      :     81.17s CPU     84.37s WALL (    9141 calls)

     Called by *egterg:
     cdiaghg      :      5.94s CPU      6.20s WALL (   25473 calls)
     h_psi        :     71.18s CPU     73.94s WALL (   26304 calls)
     s_psi        :      0.74s CPU      0.78s WALL (   26304 calls)
     g_psi        :      0.32s CPU      0.34s WALL (   16332 calls)

     Called by h_psi:
     h_psi:calbec :      1.97s CPU      2.04s WALL (   26304 calls)
     vloc_psi     :     67.88s CPU     70.51s WALL (   26304 calls)
     add_vuspsi   :      0.83s CPU      0.87s WALL (   26304 calls)

     General routines
     calbec       :      2.87s CPU      2.98s WALL (   39600 calls)
     fft          :      0.03s CPU      0.09s WALL (     157 calls)
     ffts         :      0.04s CPU      0.04s WALL (     201 calls)
     fftw         :     73.88s CPU     76.80s WALL (  673205 calls)
 
     Parallel routines
 
     PWSCF        :   1m56.00s CPU   2m14.68s WALL

 
   This run was terminated on:  15: 8: 7   6May2026            

=------------------------------------------------------------------------------=
   JOB DONE.
=------------------------------------------------------------------------------=
