
     Program PWSCF v.7.1 starts on  6May2026 at 14:38:47 

     This program is part of the open-source Quantum ESPRESSO suite
     for quantum simulation of materials; please cite
         "P. Giannozzi et al., J. Phys.:Condens. Matter 21 395502 (2009);
         "P. Giannozzi et al., J. Phys.:Condens. Matter 29 465901 (2017);
         "P. Giannozzi et al., J. Chem. Phys. 152 154105 (2020);
          URL http://www.quantum-espresso.org", 
     in publications or presentations arising from this work. More details at
     http://www.quantum-espresso.org/quote

     Parallel version (MPI & OpenMP), running on      32 processor cores
     Number of MPI processes:                32
     Threads/MPI process:                     1

     MPI processes distributed on     1 nodes
     91485 MiB available memory on the printing compute node when the environment starts
 
     Reading input from TiN_scfkpoint28.in

     Current dimensions of program PWSCF are:
     Max number of different atomic species (ntypx) = 10
     Max number of k-points (npk) = 150000
     Max angular momentum in pseudopotentials (lmaxx) =  4
     file Ti.pbe-spn-kjpaw_psl.1.0.0.UPF: wavefunction(s)  3S 3P 3D renormalized
     file N.pbe-n-kjpaw_psl.1.0.0.UPF: wavefunction(s)  2S renormalized
     Message from routine setup:
     using ibrav=0 with symmetry is DISCOURAGED, use correct ibrav instead
 
     K-points division:     npool     =       2
     R & G space division:  proc/nbgrp/npool/nimage =      16
     Subspace diagonalization in iterative solution of the eigenvalue problem:
     a serial algorithm will be used

 
     Parallelization info
     --------------------
     sticks:   dense  smooth     PW     G-vecs:    dense   smooth      PW
     Min         111     111     31                 3076     3076     480
     Max         112     112     32                 3078     3078     485
     Sum        1777    1777    511                49229    49229    7727
 
     Using Slab Decomposition
 


     bravais-lattice index     =            0
     lattice parameter (alat)  =       5.6709  a.u.
     unit-cell volume          =     128.9531 (a.u.)^3
     number of atoms/cell      =            2
     number of atomic types    =            2
     number of electrons       =        17.00
     number of Kohn-Sham states=           13
     kinetic-energy cutoff     =     200.0000  Ry
     charge density cutoff     =     800.0000  Ry
     scf convergence threshold =      1.0E-08
     mixing beta               =       0.2000
     number of iterations used =            8  local-TF  mixing
     Exchange-correlation= SLA  PW   PBX  PBC
                           (   1   4   3   4   0   0   0)

     celldm(1)=   5.670860  celldm(2)=   0.000000  celldm(3)=   0.000000
     celldm(4)=   0.000000  celldm(5)=   0.000000  celldm(6)=   0.000000

     crystal axes: (cart. coord. in units of alat)
               a(1) = (  -0.707107   0.000000   0.707107 )  
               a(2) = (   0.000000   0.707107   0.707107 )  
               a(3) = (  -0.707107   0.707107   0.000000 )  

     reciprocal axes: (cart. coord. in units 2 pi/alat)
               b(1) = ( -0.707107 -0.707107  0.707107 )  
               b(2) = (  0.707107  0.707107  0.707107 )  
               b(3) = ( -0.707107  0.707107 -0.707107 )  


     PseudoPot. # 1 for Ti read from file:
     ../../pseudo/Ti.pbe-spn-kjpaw_psl.1.0.0.UPF
     MD5 check sum: 01f69b0d8ba4438b2e03ac6ea4af1c0b
     Pseudo is Projector augmented-wave + core cor, Zval = 12.0
     Generated using &quot;atomic&quot; code by A. Dal Corso  v.6.2.2
     Shape of augmentation charge: PSQ
     Using radial grid of 1177 points,  6 beta functions with: 
                l(1) =   0
                l(2) =   0
                l(3) =   1
                l(4) =   1
                l(5) =   2
                l(6) =   2
     Q(r) pseudized with 0 coefficients 


     PseudoPot. # 2 for N  read from file:
     ../../pseudo/N.pbe-n-kjpaw_psl.1.0.0.UPF
     MD5 check sum: 14c48229446f9f2d411169a3abcbc3fa
     Pseudo is Projector augmented-wave + core cor, Zval =  5.0
     Generated using &quot;atomic&quot; code by A. Dal Corso  v.6.3
     Shape of augmentation charge: PSQ
     Using radial grid of 1085 points,  4 beta functions with: 
                l(1) =   0
                l(2) =   0
                l(3) =   1
                l(4) =   1
     Q(r) pseudized with 0 coefficients 


     atomic species   valence    mass     pseudopotential
        Ti            12.00    47.86700     Ti( 1.00)
        N              5.00    14.00700     N ( 1.00)

     48 Sym. Ops., with inversion, found



   Cartesian axes

     site n.     atom                  positions (alat units)
         1           Ti  tau(   1) = (   0.0000000   0.0000000   0.0000000  )
         2           N   tau(   2) = (  -0.7071068   0.7071068   0.7071068  )

     number of k points=   624  Gaussian smearing, width (Ry)=  0.0050

     Number of k-points >= 100: set verbosity='high' to print them.

     Dense  grid:    49229 G-vectors     FFT dimensions: (  54,  54,  54)

     Estimated max dynamical RAM per process >      35.44 MB

     Estimated total dynamical RAM >       1.10 GB

     Check: negative core charge=   -0.000002

     Initial potential from superposition of free atoms

     starting charge      16.9985, renormalised to      17.0000
     Starting wfcs are   14 randomized atomic wfcs
     Checking if some PAW data can be deallocated... 

     total cpu time spent up to now is        2.0 secs

     Self-consistent Calculation

     iteration #  1     ecut=   200.00 Ry     beta= 0.20
     Davidson diagonalization with overlap
     ethr =  1.00E-02,  avg # of iterations =  2.0

     total cpu time spent up to now is        6.2 secs

     total energy              =    -212.23734351 Ry
     estimated scf accuracy    <       0.72406281 Ry

     iteration #  2     ecut=   200.00 Ry     beta= 0.20
     Davidson diagonalization with overlap
     ethr =  4.26E-03,  avg # of iterations =  1.0

     total cpu time spent up to now is        9.6 secs

     total energy              =    -212.10468594 Ry
     estimated scf accuracy    <       0.36003019 Ry

     iteration #  3     ecut=   200.00 Ry     beta= 0.20
     Davidson diagonalization with overlap
     ethr =  2.12E-03,  avg # of iterations =  2.0

     total cpu time spent up to now is       13.4 secs

     total energy              =    -212.17020139 Ry
     estimated scf accuracy    <       0.01124628 Ry

     iteration #  4     ecut=   200.00 Ry     beta= 0.20
     Davidson diagonalization with overlap
     ethr =  6.62E-05,  avg # of iterations =  2.0

     total cpu time spent up to now is       17.4 secs

     total energy              =    -212.17014333 Ry
     estimated scf accuracy    <       0.00987852 Ry

     iteration #  5     ecut=   200.00 Ry     beta= 0.20
     Davidson diagonalization with overlap
     ethr =  5.81E-05,  avg # of iterations =  1.5

     total cpu time spent up to now is       21.0 secs

     total energy              =    -212.17166232 Ry
     estimated scf accuracy    <       0.00028771 Ry

     iteration #  6     ecut=   200.00 Ry     beta= 0.20
     Davidson diagonalization with overlap
     ethr =  1.69E-06,  avg # of iterations =  2.1

     total cpu time spent up to now is       24.8 secs

     total energy              =    -212.17157476 Ry
     estimated scf accuracy    <       0.00023913 Ry

     iteration #  7     ecut=   200.00 Ry     beta= 0.20
     Davidson diagonalization with overlap
     ethr =  1.41E-06,  avg # of iterations =  1.6

     total cpu time spent up to now is       28.4 secs

     total energy              =    -212.17159158 Ry
     estimated scf accuracy    <       0.00001058 Ry

     iteration #  8     ecut=   200.00 Ry     beta= 0.20
     Davidson diagonalization with overlap
     ethr =  6.23E-08,  avg # of iterations =  2.1

     total cpu time spent up to now is       32.5 secs

     total energy              =    -212.17159319 Ry
     estimated scf accuracy    <       0.00000237 Ry

     iteration #  9     ecut=   200.00 Ry     beta= 0.20
     Davidson diagonalization with overlap
     ethr =  1.39E-08,  avg # of iterations =  2.1

     total cpu time spent up to now is       36.9 secs

     total energy              =    -212.17159362 Ry
     estimated scf accuracy    <       0.00000355 Ry

     iteration # 10     ecut=   200.00 Ry     beta= 0.20
     Davidson diagonalization with overlap
     ethr =  1.39E-08,  avg # of iterations =  1.7

     total cpu time spent up to now is       40.6 secs

     total energy              =    -212.17159415 Ry
     estimated scf accuracy    <       0.00000003 Ry

     iteration # 11     ecut=   200.00 Ry     beta= 0.20
     Davidson diagonalization with overlap
     ethr =  1.49E-10,  avg # of iterations =  2.0

     total cpu time spent up to now is       44.6 secs

     total energy              =    -212.17159415 Ry
     estimated scf accuracy    <       0.00000002 Ry

     iteration # 12     ecut=   200.00 Ry     beta= 0.20
     Davidson diagonalization with overlap
     ethr =  1.34E-10,  avg # of iterations =  1.5

     total cpu time spent up to now is       48.1 secs

     End of self-consistent calculation

     Number of k-points >= 100: set verbosity='high' to print the bands.

     the Fermi energy is    17.1350 ev

!    total energy              =    -212.17159415 Ry
     total all-electron energy =     -1817.393302 Ry
     estimated scf accuracy    <          3.3E-11 Ry
     smearing contrib. (-TS)   =      -0.00014652 Ry
     internal energy E=F+TS    =    -212.17144763 Ry

     The total energy is F=E-TS. E is the sum of the following terms:
     one-electron contribution =     -24.38652130 Ry
     hartree contribution      =      22.87780598 Ry
     xc contribution           =     -24.43358962 Ry
     ewald contribution        =    -112.92161733 Ry
     one-center paw contrib.   =     -73.30752536 Ry

     convergence has been achieved in  12 iterations

     Forces acting on atoms (cartesian axes, Ry/au):

     atom    1 type  1   force =     0.00000000    0.00000000   -0.00000000
     atom    2 type  2   force =     0.00000000    0.00000000    0.00000000

     Total force =     0.000000     Total SCF correction =     0.000000


     Computing stress (Cartesian axis) and pressure

          total   stress  (Ry/bohr**3)                   (kbar)     P=       21.49
   0.00014608   0.00000000  -0.00000000           21.49        0.00       -0.00
  -0.00000000   0.00014608   0.00000000           -0.00       21.49        0.00
   0.00000000   0.00000000   0.00014608            0.00        0.00       21.49


     Writing all to output data dir ../output/TiN.save/
 
     init_run     :      1.52s CPU      1.62s WALL (       1 calls)
     electrons    :     44.38s CPU     46.14s WALL (       1 calls)
     forces       :      0.27s CPU      0.28s WALL (       1 calls)
     stress       :      0.82s CPU      0.83s WALL (       1 calls)

     Called by init_run:
     wfcinit      :      1.39s CPU      1.46s WALL (       1 calls)
     potinit      :      0.04s CPU      0.05s WALL (       1 calls)
     hinit0       :      0.05s CPU      0.07s WALL (       1 calls)

     Called by electrons:
     c_bands      :     36.62s CPU     38.07s WALL (      12 calls)
     sum_band     :      7.18s CPU      7.45s WALL (      12 calls)
     v_of_rho     :      0.06s CPU      0.06s WALL (      13 calls)
     newd         :      0.08s CPU      0.09s WALL (      13 calls)
     PAW_pot      :      0.39s CPU      0.40s WALL (      13 calls)
     mix_rho      :      0.07s CPU      0.07s WALL (      12 calls)

     Called by c_bands:
     init_us_2    :      0.99s CPU      1.04s WALL (    8424 calls)
     init_us_2:cp :      0.95s CPU      1.01s WALL (    8424 calls)
     cegterg      :     33.27s CPU     34.50s WALL (    3744 calls)

     Called by *egterg:
     cdiaghg      :      2.41s CPU      2.50s WALL (   10475 calls)
     h_psi        :     29.07s CPU     30.15s WALL (   10787 calls)
     s_psi        :      0.30s CPU      0.31s WALL (   10787 calls)
     g_psi        :      0.13s CPU      0.14s WALL (    6731 calls)

     Called by h_psi:
     h_psi:calbec :      0.86s CPU      0.89s WALL (   10787 calls)
     vloc_psi     :     27.68s CPU     28.71s WALL (   10787 calls)
     add_vuspsi   :      0.34s CPU      0.35s WALL (   10787 calls)

     General routines
     calbec       :      1.20s CPU      1.25s WALL (   16091 calls)
     fft          :      0.03s CPU      0.04s WALL (     168 calls)
     ffts         :      0.04s CPU      0.04s WALL (     217 calls)
     fftw         :     30.21s CPU     31.33s WALL (  274994 calls)
 
     Parallel routines
 
     PWSCF        :     48.21s CPU     51.91s WALL

 
   This run was terminated on:  14:39:39   6May2026            

=------------------------------------------------------------------------------=
   JOB DONE.
=------------------------------------------------------------------------------=
