
     Program PWSCF v.7.1 starts on  6May2026 at 14:32:46 

     This program is part of the open-source Quantum ESPRESSO suite
     for quantum simulation of materials; please cite
         "P. Giannozzi et al., J. Phys.:Condens. Matter 21 395502 (2009);
         "P. Giannozzi et al., J. Phys.:Condens. Matter 29 465901 (2017);
         "P. Giannozzi et al., J. Chem. Phys. 152 154105 (2020);
          URL http://www.quantum-espresso.org", 
     in publications or presentations arising from this work. More details at
     http://www.quantum-espresso.org/quote

     Parallel version (MPI & OpenMP), running on      32 processor cores
     Number of MPI processes:                32
     Threads/MPI process:                     1

     MPI processes distributed on     1 nodes
     91493 MiB available memory on the printing compute node when the environment starts
 
     Reading input from TiN_scfkpoint12.in

     Current dimensions of program PWSCF are:
     Max number of different atomic species (ntypx) = 10
     Max number of k-points (npk) = 150000
     Max angular momentum in pseudopotentials (lmaxx) =  4
     file Ti.pbe-spn-kjpaw_psl.1.0.0.UPF: wavefunction(s)  3S 3P 3D renormalized
     file N.pbe-n-kjpaw_psl.1.0.0.UPF: wavefunction(s)  2S renormalized
     Message from routine setup:
     using ibrav=0 with symmetry is DISCOURAGED, use correct ibrav instead
 
     K-points division:     npool     =       2
     R & G space division:  proc/nbgrp/npool/nimage =      16
     Subspace diagonalization in iterative solution of the eigenvalue problem:
     a serial algorithm will be used

 
     Parallelization info
     --------------------
     sticks:   dense  smooth     PW     G-vecs:    dense   smooth      PW
     Min         111     111     31                 3076     3076     475
     Max         112     112     32                 3078     3078     478
     Sum        1777    1777    511                49229    49229    7631
 
     Using Slab Decomposition
 


     bravais-lattice index     =            0
     lattice parameter (alat)  =       5.6709  a.u.
     unit-cell volume          =     128.9531 (a.u.)^3
     number of atoms/cell      =            2
     number of atomic types    =            2
     number of electrons       =        17.00
     number of Kohn-Sham states=           13
     kinetic-energy cutoff     =     200.0000  Ry
     charge density cutoff     =     800.0000  Ry
     scf convergence threshold =      1.0E-08
     mixing beta               =       0.2000
     number of iterations used =            8  local-TF  mixing
     Exchange-correlation= SLA  PW   PBX  PBC
                           (   1   4   3   4   0   0   0)

     celldm(1)=   5.670860  celldm(2)=   0.000000  celldm(3)=   0.000000
     celldm(4)=   0.000000  celldm(5)=   0.000000  celldm(6)=   0.000000

     crystal axes: (cart. coord. in units of alat)
               a(1) = (  -0.707107   0.000000   0.707107 )  
               a(2) = (   0.000000   0.707107   0.707107 )  
               a(3) = (  -0.707107   0.707107   0.000000 )  

     reciprocal axes: (cart. coord. in units 2 pi/alat)
               b(1) = ( -0.707107 -0.707107  0.707107 )  
               b(2) = (  0.707107  0.707107  0.707107 )  
               b(3) = ( -0.707107  0.707107 -0.707107 )  


     PseudoPot. # 1 for Ti read from file:
     ../../pseudo/Ti.pbe-spn-kjpaw_psl.1.0.0.UPF
     MD5 check sum: 01f69b0d8ba4438b2e03ac6ea4af1c0b
     Pseudo is Projector augmented-wave + core cor, Zval = 12.0
     Generated using &quot;atomic&quot; code by A. Dal Corso  v.6.2.2
     Shape of augmentation charge: PSQ
     Using radial grid of 1177 points,  6 beta functions with: 
                l(1) =   0
                l(2) =   0
                l(3) =   1
                l(4) =   1
                l(5) =   2
                l(6) =   2
     Q(r) pseudized with 0 coefficients 


     PseudoPot. # 2 for N  read from file:
     ../../pseudo/N.pbe-n-kjpaw_psl.1.0.0.UPF
     MD5 check sum: 14c48229446f9f2d411169a3abcbc3fa
     Pseudo is Projector augmented-wave + core cor, Zval =  5.0
     Generated using &quot;atomic&quot; code by A. Dal Corso  v.6.3
     Shape of augmentation charge: PSQ
     Using radial grid of 1085 points,  4 beta functions with: 
                l(1) =   0
                l(2) =   0
                l(3) =   1
                l(4) =   1
     Q(r) pseudized with 0 coefficients 


     atomic species   valence    mass     pseudopotential
        Ti            12.00    47.86700     Ti( 1.00)
        N              5.00    14.00700     N ( 1.00)

     48 Sym. Ops., with inversion, found



   Cartesian axes

     site n.     atom                  positions (alat units)
         1           Ti  tau(   1) = (   0.0000000   0.0000000   0.0000000  )
         2           N   tau(   2) = (  -0.7071068   0.7071068   0.7071068  )

     number of k points=    72  Gaussian smearing, width (Ry)=  0.0050
                       cart. coord. in units 2pi/alat
        k(    1) = (   0.0000000   0.0000000   0.0000000), wk =   0.0011574
        k(    2) = (  -0.0589256   0.0589256  -0.0589256), wk =   0.0092593
        k(    3) = (  -0.1178511   0.1178511  -0.1178511), wk =   0.0092593
        k(    4) = (  -0.1767767   0.1767767  -0.1767767), wk =   0.0092593
        k(    5) = (  -0.2357023   0.2357023  -0.2357023), wk =   0.0092593
        k(    6) = (  -0.2946278   0.2946278  -0.2946278), wk =   0.0092593
        k(    7) = (   0.3535534  -0.3535534   0.3535534), wk =   0.0046296
        k(    8) = (  -0.0000000   0.1178511  -0.0000000), wk =   0.0069444
        k(    9) = (  -0.0589256   0.1767767  -0.0589256), wk =   0.0277778
        k(   10) = (  -0.1178511   0.2357023  -0.1178511), wk =   0.0277778
        k(   11) = (  -0.1767767   0.2946278  -0.1767767), wk =   0.0277778
        k(   12) = (  -0.2357023   0.3535534  -0.2357023), wk =   0.0277778
        k(   13) = (   0.4124790  -0.2946278   0.4124790), wk =   0.0277778
        k(   14) = (   0.3535534  -0.2357023   0.3535534), wk =   0.0277778
        k(   15) = (   0.2946278  -0.1767767   0.2946278), wk =   0.0277778
        k(   16) = (   0.2357023  -0.1178511   0.2357023), wk =   0.0277778
        k(   17) = (   0.1767767  -0.0589256   0.1767767), wk =   0.0277778
        k(   18) = (   0.1178511  -0.0000000   0.1178511), wk =   0.0138889
        k(   19) = (  -0.0000000   0.2357023  -0.0000000), wk =   0.0069444
        k(   20) = (  -0.0589256   0.2946278  -0.0589256), wk =   0.0277778
        k(   21) = (  -0.1178511   0.3535534  -0.1178511), wk =   0.0277778
        k(   22) = (  -0.1767767   0.4124790  -0.1767767), wk =   0.0277778
        k(   23) = (   0.4714045  -0.2357023   0.4714045), wk =   0.0277778
        k(   24) = (   0.4124790  -0.1767767   0.4124790), wk =   0.0277778
        k(   25) = (   0.3535534  -0.1178511   0.3535534), wk =   0.0277778
        k(   26) = (   0.2946278  -0.0589256   0.2946278), wk =   0.0277778
        k(   27) = (   0.2357023   0.0000000   0.2357023), wk =   0.0138889
        k(   28) = (   0.0000000   0.3535534   0.0000000), wk =   0.0069444
        k(   29) = (  -0.0589256   0.4124790  -0.0589256), wk =   0.0277778
        k(   30) = (  -0.1178511   0.4714045  -0.1178511), wk =   0.0277778
        k(   31) = (   0.5303301  -0.1767767   0.5303301), wk =   0.0277778
        k(   32) = (   0.4714045  -0.1178511   0.4714045), wk =   0.0277778
        k(   33) = (   0.4124790  -0.0589256   0.4124790), wk =   0.0277778
        k(   34) = (   0.3535534   0.0000000   0.3535534), wk =   0.0138889
        k(   35) = (  -0.0000000   0.4714045  -0.0000000), wk =   0.0069444
        k(   36) = (  -0.0589256   0.5303301  -0.0589256), wk =   0.0277778
        k(   37) = (   0.5892557  -0.1178511   0.5892557), wk =   0.0277778
        k(   38) = (   0.5303301  -0.0589256   0.5303301), wk =   0.0277778
        k(   39) = (   0.4714045  -0.0000000   0.4714045), wk =   0.0138889
        k(   40) = (  -0.0000000   0.5892557  -0.0000000), wk =   0.0069444
        k(   41) = (   0.6481812  -0.0589256   0.6481812), wk =   0.0277778
        k(   42) = (   0.5892557   0.0000000   0.5892557), wk =   0.0138889
        k(   43) = (   0.0000000  -0.7071068   0.0000000), wk =   0.0034722
        k(   44) = (  -0.1178511   0.2357023   0.0000000), wk =   0.0277778
        k(   45) = (  -0.1767767   0.2946278  -0.0589256), wk =   0.0555556
        k(   46) = (  -0.2357023   0.3535534  -0.1178511), wk =   0.0555556
        k(   47) = (   0.4124790  -0.2946278   0.5303301), wk =   0.0555556
        k(   48) = (   0.3535534  -0.2357023   0.4714045), wk =   0.0277778
        k(   49) = (  -0.1178511   0.3535534   0.0000000), wk =   0.0277778
        k(   50) = (  -0.1767767   0.4124790  -0.0589256), wk =   0.0555556
        k(   51) = (   0.4714045  -0.2357023   0.5892557), wk =   0.0555556
        k(   52) = (   0.4124790  -0.1767767   0.5303301), wk =   0.0555556
        k(   53) = (   0.3535534  -0.1178511   0.4714045), wk =   0.0555556
        k(   54) = (   0.2946278  -0.0589256   0.4124790), wk =   0.0555556
        k(   55) = (   0.2357023   0.0000000   0.3535534), wk =   0.0277778
        k(   56) = (  -0.1178511   0.4714045  -0.0000000), wk =   0.0277778
        k(   57) = (   0.5303301  -0.1767767   0.6481812), wk =   0.0555556
        k(   58) = (   0.4714045  -0.1178511   0.5892557), wk =   0.0555556
        k(   59) = (   0.4124790  -0.0589256   0.5303301), wk =   0.0555556
        k(   60) = (   0.3535534  -0.0000000   0.4714045), wk =   0.0277778
        k(   61) = (   0.5892557  -0.1178511   0.7071068), wk =   0.0277778
        k(   62) = (   0.5303301  -0.0589256   0.6481812), wk =   0.0555556
        k(   63) = (   0.4714045  -0.0000000   0.5892557), wk =   0.0277778
        k(   64) = (  -0.1178511  -0.7071068  -0.0000000), wk =   0.0138889
        k(   65) = (   0.4714045  -0.2357023   0.7071068), wk =   0.0277778
        k(   66) = (   0.4124790  -0.1767767   0.6481812), wk =   0.0555556
        k(   67) = (   0.3535534  -0.1178511   0.5892557), wk =   0.0277778
        k(   68) = (   0.4714045  -0.1178511   0.7071068), wk =   0.0277778
        k(   69) = (   0.4124790  -0.0589256   0.6481812), wk =   0.0555556
        k(   70) = (   0.3535534   0.0000000   0.5892557), wk =   0.0277778
        k(   71) = (  -0.2357023  -0.7071068   0.0000000), wk =   0.0138889
        k(   72) = (  -0.3535534  -0.7071068   0.0000000), wk =   0.0069444

     Dense  grid:    49229 G-vectors     FFT dimensions: (  54,  54,  54)

     Estimated max dynamical RAM per process >      14.41 MB

     Estimated total dynamical RAM >     449.24 MB

     Check: negative core charge=   -0.000002

     Initial potential from superposition of free atoms

     starting charge      16.9985, renormalised to      17.0000
     Starting wfcs are   14 randomized atomic wfcs
     Checking if some PAW data can be deallocated... 

     total cpu time spent up to now is        0.6 secs

     Self-consistent Calculation

     iteration #  1     ecut=   200.00 Ry     beta= 0.20
     Davidson diagonalization with overlap
     ethr =  1.00E-02,  avg # of iterations =  2.0

     total cpu time spent up to now is        1.2 secs

     total energy              =    -212.23773550 Ry
     estimated scf accuracy    <       0.72283808 Ry

     iteration #  2     ecut=   200.00 Ry     beta= 0.20
     Davidson diagonalization with overlap
     ethr =  4.25E-03,  avg # of iterations =  1.0

     total cpu time spent up to now is        1.6 secs

     total energy              =    -212.10557117 Ry
     estimated scf accuracy    <       0.35921716 Ry

     iteration #  3     ecut=   200.00 Ry     beta= 0.20
     Davidson diagonalization with overlap
     ethr =  2.11E-03,  avg # of iterations =  2.0

     total cpu time spent up to now is        2.1 secs

     total energy              =    -212.17045862 Ry
     estimated scf accuracy    <       0.01087219 Ry

     iteration #  4     ecut=   200.00 Ry     beta= 0.20
     Davidson diagonalization with overlap
     ethr =  6.40E-05,  avg # of iterations =  2.0

     total cpu time spent up to now is        2.6 secs

     total energy              =    -212.17017203 Ry
     estimated scf accuracy    <       0.00975048 Ry

     iteration #  5     ecut=   200.00 Ry     beta= 0.20
     Davidson diagonalization with overlap
     ethr =  5.74E-05,  avg # of iterations =  1.6

     total cpu time spent up to now is        3.1 secs

     total energy              =    -212.17174861 Ry
     estimated scf accuracy    <       0.00040001 Ry

     iteration #  6     ecut=   200.00 Ry     beta= 0.20
     Davidson diagonalization with overlap
     ethr =  2.35E-06,  avg # of iterations =  1.9

     total cpu time spent up to now is        3.6 secs

     total energy              =    -212.17166691 Ry
     estimated scf accuracy    <       0.00022313 Ry

     iteration #  7     ecut=   200.00 Ry     beta= 0.20
     Davidson diagonalization with overlap
     ethr =  1.31E-06,  avg # of iterations =  1.6

     total cpu time spent up to now is        4.0 secs

     total energy              =    -212.17168268 Ry
     estimated scf accuracy    <       0.00001010 Ry

     iteration #  8     ecut=   200.00 Ry     beta= 0.20
     Davidson diagonalization with overlap
     ethr =  5.94E-08,  avg # of iterations =  2.2

     total cpu time spent up to now is        4.6 secs

     total energy              =    -212.17168246 Ry
     estimated scf accuracy    <       0.00000696 Ry

     iteration #  9     ecut=   200.00 Ry     beta= 0.20
     Davidson diagonalization with overlap
     ethr =  4.09E-08,  avg # of iterations =  2.0

     total cpu time spent up to now is        5.1 secs

     total energy              =    -212.17168415 Ry
     estimated scf accuracy    <       0.00000266 Ry

     iteration # 10     ecut=   200.00 Ry     beta= 0.20
     Davidson diagonalization with overlap
     ethr =  1.57E-08,  avg # of iterations =  1.0

     total cpu time spent up to now is        5.5 secs

     total energy              =    -212.17168454 Ry
     estimated scf accuracy    <       0.00000004 Ry

     iteration # 11     ecut=   200.00 Ry     beta= 0.20
     Davidson diagonalization with overlap
     ethr =  2.21E-10,  avg # of iterations =  2.1

     total cpu time spent up to now is        6.1 secs

     total energy              =    -212.17168454 Ry
     estimated scf accuracy    <       0.00000004 Ry

     iteration # 12     ecut=   200.00 Ry     beta= 0.20
     Davidson diagonalization with overlap
     ethr =  2.12E-10,  avg # of iterations =  1.4

     total cpu time spent up to now is        6.7 secs

     End of self-consistent calculation

          k = 0.0000 0.0000 0.0000 (  6183 PWs)   bands (ev):

   -40.7218 -16.7131 -16.7131 -16.7131   0.0203  15.0938  15.0938  15.0938
    16.5152  16.5152  16.5152  17.7143  17.7143

          k =-0.0589 0.0589-0.0589 (  6156 PWs)   bands (ev):

   -40.7154 -16.7583 -16.7168 -16.7168   0.1561  14.3647  14.5537  14.5537
    16.7020  16.7020  16.8677  18.2922  18.2922

          k =-0.1179 0.1179-0.1179 (  6129 PWs)   bands (ev):

   -40.6979 -16.8801 -16.7270 -16.7270   0.5401  13.0136  13.6389  13.6389
    17.0844  17.0844  17.3381  19.4602  19.4602

          k =-0.1768 0.1768-0.1768 (  6150 PWs)   bands (ev):

   -40.6738 -17.0424 -16.7409 -16.7409   1.1049  11.5853  12.8070  12.8070
    17.6053  17.6053  17.8324  20.7020  20.7020

          k =-0.2357 0.2357-0.2357 (  6177 PWs)   bands (ev):

   -40.6496 -17.2006 -16.7547 -16.7547   1.7396  10.3121  12.1725  12.1725
    18.1725  18.1725  18.4459  21.7952  21.7952

          k =-0.2946 0.2946-0.2946 (  6171 PWs)   bands (ev):

   -40.6319 -17.3140 -16.7648 -16.7648   2.2762   9.3919  11.7788  11.7788
    18.6298  18.6298  19.1210  22.5673  22.5673

          k = 0.3536-0.3536 0.3536 (  6164 PWs)   bands (ev):

   -40.6253 -17.3550 -16.7685 -16.7685   2.4961   9.0448  11.6456  11.6456
    18.8082  18.8082  19.4785  22.8524  22.8524

          k =-0.0000 0.1179-0.0000 (  6126 PWs)   bands (ev):

   -40.7133 -16.7556 -16.7268 -16.7268   0.1969  13.8450  14.6830  14.6830
    16.3070  17.1213  17.1213  17.7800  18.7664

          k =-0.0589 0.1768-0.0589 (  6153 PWs)   bands (ev):

   -40.6995 -16.8455 -16.7425 -16.7328   0.4850  12.8482  13.9689  14.1058
    16.3849  17.4315  17.6104  18.4984  19.6560

          k =-0.1179 0.2357-0.1179 (  6159 PWs)   bands (ev):

   -40.6776 -16.9909 -16.7595 -16.7433   0.9679  11.7586  12.9954  13.3092
    16.7737  17.8369  18.0902  19.6690  20.7553

          k =-0.1768 0.2946-0.1768 (  6156 PWs)   bands (ev):

   -40.6535 -17.1463 -16.7733 -16.7601   1.5518  10.6593  12.2425  12.5894
    17.3218  18.3368  18.6179  20.8344  21.7532

          k =-0.2357 0.3536-0.2357 (  6178 PWs)   bands (ev):

   -40.6335 -17.2709 -16.7803 -16.7786   2.0968   9.7398  11.7974  12.0569
    17.9613  18.7338  19.1291  21.8494  22.3676

          k = 0.4125-0.2946 0.4125 (  6170 PWs)   bands (ev):

   -40.6233 -17.3339 -16.7937 -16.7786   2.4159   9.2397  11.6432  11.7574
    18.5179  18.8484  19.4079  22.4493  22.5741

          k = 0.3536-0.2357 0.3536 (  6165 PWs)   bands (ev):

   -40.6254 -17.3205 -16.8011 -16.7687   2.3544   9.3342  11.7100  11.7626
    18.6175  18.6617  19.3040  22.1266  22.8312

          k = 0.2946-0.1768 0.2946 (  6160 PWs)   bands (ev):

   -40.6395 -17.2342 -16.7986 -16.7532   1.9445   9.9967  11.9181  12.1385
    18.1321  18.2840  18.9899  21.3674  22.5198

          k = 0.2357-0.1179 0.2357 (  6161 PWs)   bands (ev):

   -40.6615 -17.0963 -16.7863 -16.7362   1.3678  11.0415  12.3703  12.7435
    17.5580  17.8087  18.4848  20.3188  21.7182

          k = 0.1768-0.0589 0.1768 (  6144 PWs)   bands (ev):

   -40.6856 -16.9426 -16.7665 -16.7223   0.8011  12.2645  13.0347  13.5136
    17.0486  17.4574  17.8777  19.2074  20.6053

          k = 0.1179-0.0000 0.1179 (  6151 PWs)   bands (ev):

   -40.7053 -16.8178 -16.7412 -16.7152   0.3701  13.4686  13.8354  14.2664
    16.7207  17.1361  17.2794  18.3894  19.3822

          k =-0.0000 0.2357-0.0000 (  6162 PWs)   bands (ev):

   -40.6900 -16.8662 -16.7643 -16.7643   0.6436  12.1440  14.1682  14.1682
    15.7814  17.9629  18.1338  18.1338  19.9247

          k =-0.0589 0.2946-0.0589 (  6154 PWs)   bands (ev):

   -40.6718 -16.9675 -16.7868 -16.7807   0.9810  11.4262  13.5406  13.7444
    15.8539  18.1242  18.5710  18.9442  20.5705

          k =-0.1179 0.3536-0.1179 (  6171 PWs)   bands (ev):

   -40.6499 -17.0972 -16.8038 -16.8010   1.4258  10.7823  12.6360  13.1099
    16.3312  18.5424  18.9593  19.9015  21.3547

          k =-0.1768 0.4125-0.1768 (  6168 PWs)   bands (ev):

   -40.6300 -17.2107 -16.8295 -16.8109   1.8760  10.2094  11.9614  12.5162
    16.9842  18.8939  19.2870  20.9014  21.8844

          k = 0.4714-0.2357 0.4714 (  6168 PWs)   bands (ev):

   -40.6176 -17.2786 -16.8591 -16.8062   2.2056   9.7726  11.6644  12.0801
    17.7349  18.9607  19.3924  21.8479  21.9537

          k = 0.4125-0.1768 0.4125 (  6169 PWs)   bands (ev):

   -40.6160 -17.2858 -16.8804 -16.7910   2.2935   9.6401  11.7003  11.8510
    18.3865  18.7079  19.2240  21.5902  22.5527

          k = 0.3536-0.1179 0.3536 (  6149 PWs)   bands (ev):

   -40.6256 -17.2331 -16.8849 -16.7692   2.0964   9.9120  11.8463  11.9889
    18.2411  18.4999  19.1361  20.8760  22.7962

          k = 0.2946-0.0589 0.2946 (  6152 PWs)   bands (ev):

   -40.6439 -17.1381 -16.8666 -16.7467   1.6911  10.5355  12.0627  12.4634
    17.7187  18.2807  18.9287  20.0249  22.4783

          k = 0.2357 0.0000 0.2357 (  6145 PWs)   bands (ev):

   -40.6659 -17.0315 -16.8236 -16.7295   1.2161  11.3702  12.4762  13.0349
    17.2849  18.0248  18.3868  19.3524  21.6842

          k = 0.0000 0.3536 0.0000 (  6126 PWs)   bands (ev):

   -40.6581 -17.0052 -16.8156 -16.8156   1.1310  11.0315  13.8820  13.8820
    15.1443  18.2215  18.9850  18.9850  20.6312

          k =-0.0589 0.4125-0.0589 (  6158 PWs)   bands (ev):

   -40.6399 -17.0891 -16.8427 -16.8380   1.3783  10.7499  13.2966  13.5980
    15.3446  18.5643  19.2564  19.3962  21.0250

          k =-0.1179 0.4714-0.1179 (  6178 PWs)   bands (ev):

   -40.6223 -17.1697 -16.8821 -16.8483   1.6674  10.5958  12.4361  13.0856
    15.9777  19.0277  19.4256  19.9871  21.4029

          k = 0.5303-0.1768 0.5303 (  6165 PWs)   bands (ev):

   -40.6098 -17.2167 -16.9325 -16.8437   1.9347  10.4760  11.8093  12.5735
    16.7643  19.1194  19.4414  20.8926  21.4557

          k = 0.4714-0.1179 0.4714 (  6157 PWs)   bands (ev):

   -40.6060 -17.2206 -16.9782 -16.8254   2.1107  10.2772  11.6169  12.1805
    17.6372  18.8865  19.2930  21.1256  21.8401

          k = 0.4125-0.0589 0.4125 (  6163 PWs)   bands (ev):

   -40.6118 -17.1944 -16.9925 -16.7983   2.1328  10.1308  11.7664  11.9568
    18.4269  18.4839  19.0959  20.5564  22.5405

          k = 0.3536 0.0000 0.3536 (  6157 PWs)   bands (ev):

   -40.6257 -17.1663 -16.9498 -16.7695   1.9778  10.2098  11.9187  12.0862
    18.0544  18.8147  18.8862  20.0936  22.7816

          k =-0.0000 0.4714-0.0000 (  6182 PWs)   bands (ev):

   -40.6262 -17.1314 -16.8668 -16.8668   1.4100  10.7573  13.8172  13.8172
    14.5776  18.4914  19.4344  19.4344  20.9683

          k =-0.0589 0.5303-0.0589 (  6167 PWs)   bands (ev):

   -40.6123 -17.1810 -16.8996 -16.8824   1.5147  10.8606  13.1758  13.6188
    15.0055  18.8747  19.5056  19.5428  21.0621

          k = 0.5893-0.1179 0.5893 (  6158 PWs)   bands (ev):

   -40.6021 -17.1994 -16.9586 -16.8809   1.6780  11.0215  12.2935  13.1584
    15.7824  19.2731  19.4935  19.9294  21.0514

          k = 0.5303-0.0589 0.5303 (  6158 PWs)   bands (ev):

   -40.5982 -17.1713 -17.0381 -16.8627   1.8705  11.0919  11.5871  12.6563
    16.6729  19.1131  19.4270  20.8366  20.8882

          k = 0.4714-0.0000 0.4714 (  6135 PWs)   bands (ev):

   -40.6018 -17.1295 -17.0909 -16.8325   2.0428  10.6165  11.5600  12.2363
    17.6241  18.8045  19.3179  20.5666  21.8418

          k =-0.0000 0.5893-0.0000 (  6178 PWs)   bands (ev):

   -40.6028 -17.2163 -16.9042 -16.9042   1.4518  11.0791  13.8726  13.8726
    14.1978  18.6968  19.5256  19.5256  20.8871

          k = 0.6482-0.0589 0.6482 (  6163 PWs)   bands (ev):

   -40.5963 -17.2289 -16.9336 -16.9080   1.4972  11.2584  13.1108  13.6856
    14.8627  19.0671  19.4824  19.5112  20.8065

          k = 0.5893 0.0000 0.5893 (  6154 PWs)   bands (ev):

   -40.5947 -17.2030 -16.9925 -16.8929   1.6470  11.3630  12.1877  13.2041
    15.7230  19.3264  19.4897  19.8965  20.7653

          k = 0.0000-0.7071 0.0000 (  6130 PWs)   bands (ev):

   -40.5942 -17.2459 -16.9179 -16.9179   1.4323  11.3252  13.9135  13.9135
    14.0650  18.7738  19.5088  19.5088  20.7286

          k =-0.1179 0.2357 0.0000 (  6152 PWs)   bands (ev):

   -40.6835 -16.9285 -16.7802 -16.7380   0.8073  11.9902  13.4022  13.6885
    16.4305  17.9293  18.0377  18.8171  20.5029

          k =-0.1768 0.2946-0.0589 (  6155 PWs)   bands (ev):

   -40.6616 -17.0527 -16.8143 -16.7491   1.2724  11.1342  12.6426  13.0444
    16.8075  18.2512  18.5927  19.6018  21.4824

          k =-0.2357 0.3536-0.1179 (  6167 PWs)   bands (ev):

   -40.6396 -17.1796 -16.8361 -16.7670   1.7771  10.3351  12.0476  12.4473
    17.3369  18.5777  19.0677  20.5735  22.2205

          k = 0.4125-0.2946 0.5303 (  6168 PWs)   bands (ev):

   -40.6234 -17.2722 -16.8462 -16.7846   2.1828   9.7298  11.7375  12.0109
    17.9555  18.8155  19.2849  21.4693  22.5090

          k = 0.3536-0.2357 0.4714 (  6170 PWs)   bands (ev):

   -40.6175 -17.3058 -16.8485 -16.7923   2.3417   9.4995  11.6672  11.8303
    18.4019  18.7245  19.3466  21.9355  22.4634

          k =-0.1179 0.3536 0.0000 (  6158 PWs)   bands (ev):

   -40.6537 -17.0476 -16.8336 -16.7904   1.2799  10.9327  13.2101  13.2879
    15.9469  18.4865  18.9214  19.3047  21.1006

          k =-0.1768 0.4125-0.0589 (  6161 PWs)   bands (ev):

   -40.6339 -17.1393 -16.8732 -16.8067   1.6339  10.5622  12.4671  12.8276
    16.4347  18.8558  19.2213  19.8776  21.6814

          k = 0.4714-0.2357 0.5893 (  6164 PWs)   bands (ev):

   -40.6178 -17.2124 -16.9034 -16.8230   1.9556  10.2814  11.8901  12.4022
    17.0737  18.9977  19.3742  20.6707  21.9413

          k = 0.4125-0.1768 0.5303 (  6170 PWs)   bands (ev):

   -40.6097 -17.2460 -16.9283 -16.8249   2.1548  10.0751  11.6675  12.0907
    17.8004  18.7614  19.3752  21.3442  21.9147

          k = 0.3536-0.1179 0.4714 (  6172 PWs)   bands (ev):

   -40.6118 -17.2338 -16.9415 -16.8098   2.1635  10.0306  11.7380  11.9771
    18.1679  18.5682  19.2638  20.9941  22.3273

          k = 0.2946-0.0589 0.4125 (  6163 PWs)   bands (ev):

   -40.6236 -17.1850 -16.9290 -16.7858   1.9717  10.2152  11.9458  12.1530
    17.6694  18.8314  19.1413  20.2893  22.5123

          k = 0.2357 0.0000 0.3536 (  6163 PWs)   bands (ev):

   -40.6418 -17.1193 -16.8828 -16.7628   1.6407  10.6019  12.2514  12.5719
    17.1803  18.7785  18.8279  19.7646  22.1926

          k =-0.1179 0.4714-0.0000 (  6177 PWs)   bands (ev):

   -40.6239 -17.1452 -16.8869 -16.8527   1.5404  10.6988  13.0623  13.1902
    15.5647  18.8696  19.4063  19.5732  21.2493

          k = 0.5303-0.1768 0.6482 (  6160 PWs)   bands (ev):

   -40.6100 -17.1841 -16.9342 -16.8684   1.7326  10.7614  12.3403  12.8242
    16.1852  19.1475  19.4727  19.9254  21.3971

          k = 0.4714-0.1179 0.5893 (  6148 PWs)   bands (ev):

   -40.6019 -17.1886 -16.9929 -16.8668   1.9154  10.8106  11.7442  12.4707
    16.9348  18.9787  19.4558  20.6548  21.2943

          k = 0.4125-0.0589 0.5303 (  6154 PWs)   bands (ev):

   -40.6018 -17.1651 -17.0416 -16.8461   2.0428  10.6115  11.6132  12.1750
    17.7649  18.5880  19.3867  20.6807  21.7107

          k = 0.3536-0.0000 0.4714 (  6147 PWs)   bands (ev):

   -40.6098 -17.1666 -17.0166 -16.8155   2.0689  10.3285  11.8179  11.9992
    18.1268  18.5240  19.2667  20.3130  22.3212

          k = 0.5893-0.1179 0.7071 (  6170 PWs)   bands (ev):

   -40.6021 -17.2049 -16.9259 -16.9034   1.5668  11.0665  12.9506  13.2418
    15.3651  19.1448  19.5195  19.5220  21.0058

          k = 0.5303-0.0589 0.6482 (  6152 PWs)   bands (ev):

   -40.5962 -17.1934 -16.9820 -16.9046   1.6923  11.2727  12.2194  12.8600
    16.0794  19.2193  19.5036  19.8980  20.9150

          k = 0.4714-0.0000 0.5893 (  6167 PWs)   bands (ev):

   -40.5961 -17.1450 -17.0607 -16.8817   1.8664  11.3729  11.4560  12.5037
    16.8965  18.9456  19.4734  20.5283  20.9826

          k =-0.1179-0.7071-0.0000 (  6160 PWs)   bands (ev):

   -40.5942 -17.2242 -16.9402 -16.9231   1.5416  11.3433  12.9155  13.2611
    15.3128  19.3088  19.4006  19.5097  20.7757

          k = 0.4714-0.2357 0.7071 (  6151 PWs)   bands (ev):

   -40.6179 -17.1670 -16.9419 -16.8273   1.8397  10.5078  12.2805  12.3060
    16.9272  19.0166  19.3353  19.9605  21.9449

          k = 0.4125-0.1768 0.6482 (  6149 PWs)   bands (ev):

   -40.6061 -17.1800 -16.9894 -16.8522   1.9887  10.5618  11.8531  12.1530
    17.5164  18.7249  19.4195  20.4049  21.8244

          k = 0.3536-0.1179 0.5893 (  6168 PWs)   bands (ev):

   -40.6018 -17.1835 -17.0058 -16.8637   2.0429  10.6066  11.6804  12.0997
    18.0481  18.2458  19.4459  20.8165  21.5513

          k = 0.4714-0.1179 0.7071 (  6146 PWs)   bands (ev):

   -40.6004 -17.1726 -16.9850 -16.8985   1.8168  11.0175  12.1823  12.3037
    16.7837  18.9790  19.5034  20.0195  21.2997

          k = 0.4125-0.0589 0.6482 (  6148 PWs)   bands (ev):

   -40.5961 -17.1357 -17.0439 -16.9098   1.9025  11.2433  11.7008  12.1444
    17.4522  18.5761  19.5013  20.3572  21.1154

          k = 0.3536 0.0000 0.5893 (  6152 PWs)   bands (ev):

   -40.5982 -17.1234 -17.0653 -16.8883   1.9672  10.9841  11.7016  12.0665
    18.0688  18.1269  19.4836  20.3901  21.3930

          k =-0.2357-0.7071 0.0000 (  6156 PWs)   bands (ev):

   -40.5940 -17.1648 -17.0008 -16.9334   1.7739  11.4319  12.1479  12.2161
    16.7448  18.9658  19.5115  20.0188  20.9087

          k =-0.3536-0.7071 0.0000 (  6180 PWs)   bands (ev):

   -40.5939 -17.0831 -17.0831 -16.9385   1.8980  11.6719  11.6719  11.7621
    18.0519  18.0519  19.5124  20.2454  21.0037

     the Fermi energy is    17.0854 ev

!    total energy              =    -212.17168455 Ry
     total all-electron energy =     -1817.393393 Ry
     estimated scf accuracy    <          7.7E-10 Ry
     smearing contrib. (-TS)   =      -0.00016816 Ry
     internal energy E=F+TS    =    -212.17151639 Ry

     The total energy is F=E-TS. E is the sum of the following terms:
     one-electron contribution =     -24.38404714 Ry
     hartree contribution      =      22.87489079 Ry
     xc contribution           =     -24.43315188 Ry
     ewald contribution        =    -112.92161733 Ry
     one-center paw contrib.   =     -73.30759083 Ry

     convergence has been achieved in  12 iterations

     Forces acting on atoms (cartesian axes, Ry/au):

     atom    1 type  1   force =    -0.00000000    0.00000000   -0.00000000
     atom    2 type  2   force =     0.00000000   -0.00000000    0.00000000

     Total force =     0.000000     Total SCF correction =     0.000000


     Computing stress (Cartesian axis) and pressure

          total   stress  (Ry/bohr**3)                   (kbar)     P=       21.50
   0.00014618   0.00000000   0.00000000           21.50        0.00        0.00
   0.00000000   0.00014618  -0.00000000            0.00       21.50       -0.00
  -0.00000000   0.00000000   0.00014618           -0.00        0.00       21.50


     Writing all to output data dir ../output/TiN.save/
 
     init_run     :      0.29s CPU      0.32s WALL (       1 calls)
     electrons    :      5.80s CPU      6.07s WALL (       1 calls)
     forces       :      0.05s CPU      0.05s WALL (       1 calls)
     stress       :      0.16s CPU      0.17s WALL (       1 calls)

     Called by init_run:
     wfcinit      :      0.16s CPU      0.17s WALL (       1 calls)
     potinit      :      0.04s CPU      0.04s WALL (       1 calls)
     hinit0       :      0.05s CPU      0.06s WALL (       1 calls)

     Called by electrons:
     c_bands      :      4.28s CPU      4.45s WALL (      12 calls)
     sum_band     :      0.95s CPU      0.99s WALL (      12 calls)
     v_of_rho     :      0.06s CPU      0.06s WALL (      13 calls)
     newd         :      0.08s CPU      0.09s WALL (      13 calls)
     PAW_pot      :      0.38s CPU      0.40s WALL (      13 calls)
     mix_rho      :      0.07s CPU      0.07s WALL (      12 calls)

     Called by c_bands:
     init_us_2    :      0.12s CPU      0.12s WALL (     972 calls)
     init_us_2:cp :      0.11s CPU      0.12s WALL (     972 calls)
     cegterg      :      3.85s CPU      3.98s WALL (     432 calls)

     Called by *egterg:
     cdiaghg      :      0.27s CPU      0.28s WALL (    1167 calls)
     h_psi        :      3.38s CPU      3.50s WALL (    1203 calls)
     s_psi        :      0.04s CPU      0.04s WALL (    1203 calls)
     g_psi        :      0.01s CPU      0.02s WALL (     735 calls)

     Called by h_psi:
     h_psi:calbec :      0.10s CPU      0.11s WALL (    1203 calls)
     vloc_psi     :      3.22s CPU      3.33s WALL (    1203 calls)
     add_vuspsi   :      0.04s CPU      0.04s WALL (    1203 calls)

     General routines
     calbec       :      0.14s CPU      0.15s WALL (    1815 calls)
     fft          :      0.03s CPU      0.04s WALL (     168 calls)
     ffts         :      0.04s CPU      0.04s WALL (     219 calls)
     fftw         :      3.54s CPU      3.66s WALL (   31270 calls)
 
     Parallel routines
 
     PWSCF        :      6.56s CPU      7.22s WALL

 
   This run was terminated on:  14:32:54   6May2026            

=------------------------------------------------------------------------------=
   JOB DONE.
=------------------------------------------------------------------------------=
