
     Program PWSCF v.7.1 starts on  6May2026 at 11:19:27 

     This program is part of the open-source Quantum ESPRESSO suite
     for quantum simulation of materials; please cite
         "P. Giannozzi et al., J. Phys.:Condens. Matter 21 395502 (2009);
         "P. Giannozzi et al., J. Phys.:Condens. Matter 29 465901 (2017);
         "P. Giannozzi et al., J. Chem. Phys. 152 154105 (2020);
          URL http://www.quantum-espresso.org", 
     in publications or presentations arising from this work. More details at
     http://www.quantum-espresso.org/quote

     Parallel version (MPI & OpenMP), running on      32 processor cores
     Number of MPI processes:                32
     Threads/MPI process:                     1

     MPI processes distributed on     1 nodes
     91470 MiB available memory on the printing compute node when the environment starts
 
     Reading input from TiN_scfcutoff160.in

     Current dimensions of program PWSCF are:
     Max number of different atomic species (ntypx) = 10
     Max number of k-points (npk) = 150000
     Max angular momentum in pseudopotentials (lmaxx) =  4
     file Ti.pbe-spn-kjpaw_psl.1.0.0.UPF: wavefunction(s)  3S 3P 3D renormalized
     file N.pbe-n-kjpaw_psl.1.0.0.UPF: wavefunction(s)  2S renormalized
     Message from routine setup:
     using ibrav=0 with symmetry is DISCOURAGED, use correct ibrav instead
 
     K-points division:     npool     =       2
     R & G space division:  proc/nbgrp/npool/nimage =      16
     Subspace diagonalization in iterative solution of the eigenvalue problem:
     a serial algorithm will be used

 
     Parallelization info
     --------------------
     sticks:   dense  smooth     PW     G-vecs:    dense   smooth      PW
     Min          88      88     26                 2195     2195     349
     Max          89      89     27                 2198     2198     352
     Sum        1417    1417    421                35149    35149    5601
 
     Using Slab Decomposition
 


     bravais-lattice index     =            0
     lattice parameter (alat)  =       5.6709  a.u.
     unit-cell volume          =     128.9531 (a.u.)^3
     number of atoms/cell      =            2
     number of atomic types    =            2
     number of electrons       =        17.00
     number of Kohn-Sham states=           13
     kinetic-energy cutoff     =     160.0000  Ry
     charge density cutoff     =     640.0000  Ry
     scf convergence threshold =      1.0E-08
     mixing beta               =       0.2000
     number of iterations used =            8  local-TF  mixing
     Exchange-correlation= SLA  PW   PBX  PBC
                           (   1   4   3   4   0   0   0)

     celldm(1)=   5.670860  celldm(2)=   0.000000  celldm(3)=   0.000000
     celldm(4)=   0.000000  celldm(5)=   0.000000  celldm(6)=   0.000000

     crystal axes: (cart. coord. in units of alat)
               a(1) = (  -0.707107   0.000000   0.707107 )  
               a(2) = (   0.000000   0.707107   0.707107 )  
               a(3) = (  -0.707107   0.707107   0.000000 )  

     reciprocal axes: (cart. coord. in units 2 pi/alat)
               b(1) = ( -0.707107 -0.707107  0.707107 )  
               b(2) = (  0.707107  0.707107  0.707107 )  
               b(3) = ( -0.707107  0.707107 -0.707107 )  


     PseudoPot. # 1 for Ti read from file:
     ../../pseudo/Ti.pbe-spn-kjpaw_psl.1.0.0.UPF
     MD5 check sum: 01f69b0d8ba4438b2e03ac6ea4af1c0b
     Pseudo is Projector augmented-wave + core cor, Zval = 12.0
     Generated using &quot;atomic&quot; code by A. Dal Corso  v.6.2.2
     Shape of augmentation charge: PSQ
     Using radial grid of 1177 points,  6 beta functions with: 
                l(1) =   0
                l(2) =   0
                l(3) =   1
                l(4) =   1
                l(5) =   2
                l(6) =   2
     Q(r) pseudized with 0 coefficients 


     PseudoPot. # 2 for N  read from file:
     ../../pseudo/N.pbe-n-kjpaw_psl.1.0.0.UPF
     MD5 check sum: 14c48229446f9f2d411169a3abcbc3fa
     Pseudo is Projector augmented-wave + core cor, Zval =  5.0
     Generated using &quot;atomic&quot; code by A. Dal Corso  v.6.3
     Shape of augmentation charge: PSQ
     Using radial grid of 1085 points,  4 beta functions with: 
                l(1) =   0
                l(2) =   0
                l(3) =   1
                l(4) =   1
     Q(r) pseudized with 0 coefficients 


     atomic species   valence    mass     pseudopotential
        Ti            12.00    47.86700     Ti( 1.00)
        N              5.00    14.00700     N ( 1.00)

     48 Sym. Ops., with inversion, found



   Cartesian axes

     site n.     atom                  positions (alat units)
         1           Ti  tau(   1) = (   0.0000000   0.0000000   0.0000000  )
         2           N   tau(   2) = (  -0.7071068   0.7071068   0.7071068  )

     number of k points=   145  Gaussian smearing, width (Ry)=  0.0050

     Number of k-points >= 100: set verbosity='high' to print them.

     Dense  grid:    35149 G-vectors     FFT dimensions: (  45,  45,  45)

     Estimated max dynamical RAM per process >      12.98 MB

     Estimated total dynamical RAM >     406.70 MB

     Check: negative core charge=   -0.000002

     Initial potential from superposition of free atoms

     starting charge      16.9985, renormalised to      17.0000
     Starting wfcs are   14 randomized atomic wfcs
     Checking if some PAW data can be deallocated... 

     total cpu time spent up to now is        1.0 secs

     Self-consistent Calculation

     iteration #  1     ecut=   160.00 Ry     beta= 0.20
     Davidson diagonalization with overlap
     ethr =  1.00E-02,  avg # of iterations =  2.0

     total cpu time spent up to now is        1.8 secs

     total energy              =    -212.23749803 Ry
     estimated scf accuracy    <       0.72344964 Ry

     iteration #  2     ecut=   160.00 Ry     beta= 0.20
     Davidson diagonalization with overlap
     ethr =  4.26E-03,  avg # of iterations =  1.0

     total cpu time spent up to now is        2.4 secs

     total energy              =    -212.10450369 Ry
     estimated scf accuracy    <       0.36022234 Ry

     iteration #  3     ecut=   160.00 Ry     beta= 0.20
     Davidson diagonalization with overlap
     ethr =  2.12E-03,  avg # of iterations =  2.0

     total cpu time spent up to now is        3.1 secs

     total energy              =    -212.17003655 Ry
     estimated scf accuracy    <       0.01150747 Ry

     iteration #  4     ecut=   160.00 Ry     beta= 0.20
     Davidson diagonalization with overlap
     ethr =  6.77E-05,  avg # of iterations =  2.0

     total cpu time spent up to now is        3.9 secs

     total energy              =    -212.16997039 Ry
     estimated scf accuracy    <       0.01029045 Ry

     iteration #  5     ecut=   160.00 Ry     beta= 0.20
     Davidson diagonalization with overlap
     ethr =  6.05E-05,  avg # of iterations =  1.6

     total cpu time spent up to now is        4.6 secs

     total energy              =    -212.17161702 Ry
     estimated scf accuracy    <       0.00036694 Ry

     iteration #  6     ecut=   160.00 Ry     beta= 0.20
     Davidson diagonalization with overlap
     ethr =  2.16E-06,  avg # of iterations =  2.0

     total cpu time spent up to now is        5.3 secs

     total energy              =    -212.17153068 Ry
     estimated scf accuracy    <       0.00024191 Ry

     iteration #  7     ecut=   160.00 Ry     beta= 0.20
     Davidson diagonalization with overlap
     ethr =  1.42E-06,  avg # of iterations =  1.6

     total cpu time spent up to now is        6.0 secs

     total energy              =    -212.17154712 Ry
     estimated scf accuracy    <       0.00001093 Ry

     iteration #  8     ecut=   160.00 Ry     beta= 0.20
     Davidson diagonalization with overlap
     ethr =  6.43E-08,  avg # of iterations =  2.2

     total cpu time spent up to now is        6.8 secs

     total energy              =    -212.17154825 Ry
     estimated scf accuracy    <       0.00000408 Ry

     iteration #  9     ecut=   160.00 Ry     beta= 0.20
     Davidson diagonalization with overlap
     ethr =  2.40E-08,  avg # of iterations =  2.0

     total cpu time spent up to now is        7.6 secs

     total energy              =    -212.17154916 Ry
     estimated scf accuracy    <       0.00000324 Ry

     iteration # 10     ecut=   160.00 Ry     beta= 0.20
     Davidson diagonalization with overlap
     ethr =  1.90E-08,  avg # of iterations =  1.5

     total cpu time spent up to now is        8.3 secs

     total energy              =    -212.17154967 Ry
     estimated scf accuracy    <       0.00000004 Ry

     iteration # 11     ecut=   160.00 Ry     beta= 0.20
     Davidson diagonalization with overlap
     ethr =  2.61E-10,  avg # of iterations =  2.0

     total cpu time spent up to now is        9.0 secs

     End of self-consistent calculation

     Number of k-points >= 100: set verbosity='high' to print the bands.

     the Fermi energy is    17.1451 ev

!    total energy              =    -212.17154968 Ry
     total all-electron energy =     -1817.393258 Ry
     estimated scf accuracy    <          7.7E-09 Ry
     smearing contrib. (-TS)   =      -0.00022036 Ry
     internal energy E=F+TS    =    -212.17132932 Ry

     The total energy is F=E-TS. E is the sum of the following terms:
     one-electron contribution =     -24.38675351 Ry
     hartree contribution      =      22.87819963 Ry
     xc contribution           =     -24.43363858 Ry
     ewald contribution        =    -112.92161733 Ry
     one-center paw contrib.   =     -73.30751952 Ry

     convergence has been achieved in  11 iterations

     Forces acting on atoms (cartesian axes, Ry/au):

     atom    1 type  1   force =     0.00000000    0.00000000    0.00000000
     atom    2 type  2   force =     0.00000000    0.00000000    0.00000000

     Total force =     0.000000     Total SCF correction =     0.000000


     Computing stress (Cartesian axis) and pressure

          total   stress  (Ry/bohr**3)                   (kbar)     P=       21.98
   0.00014941   0.00000000   0.00000000           21.98        0.00        0.00
   0.00000000   0.00014941  -0.00000000            0.00       21.98       -0.00
   0.00000000  -0.00000000   0.00014941            0.00       -0.00       21.98


     Writing all to output data dir ../output/TiN.save/
 
     init_run     :      0.34s CPU      0.41s WALL (       1 calls)
     electrons    :      7.55s CPU      8.09s WALL (       1 calls)
     forces       :      0.06s CPU      0.06s WALL (       1 calls)
     stress       :      0.19s CPU      0.19s WALL (       1 calls)

     Called by init_run:
     wfcinit      :      0.24s CPU      0.26s WALL (       1 calls)
     potinit      :      0.04s CPU      0.04s WALL (       1 calls)
     hinit0       :      0.05s CPU      0.07s WALL (       1 calls)

     Called by electrons:
     c_bands      :      5.93s CPU      6.28s WALL (      11 calls)
     sum_band     :      1.15s CPU      1.22s WALL (      11 calls)
     v_of_rho     :      0.04s CPU      0.04s WALL (      12 calls)
     newd         :      0.05s CPU      0.05s WALL (      12 calls)
     PAW_pot      :      0.36s CPU      0.37s WALL (      12 calls)
     mix_rho      :      0.05s CPU      0.06s WALL (      11 calls)

     Called by c_bands:
     init_us_2    :      0.16s CPU      0.17s WALL (    1825 calls)
     init_us_2:cp :      0.15s CPU      0.16s WALL (    1825 calls)
     cegterg      :      5.34s CPU      5.61s WALL (     803 calls)

     Called by *egterg:
     cdiaghg      :      0.51s CPU      0.53s WALL (    2249 calls)
     h_psi        :      4.50s CPU      4.73s WALL (    2322 calls)
     s_psi        :      0.06s CPU      0.06s WALL (    2322 calls)
     g_psi        :      0.02s CPU      0.02s WALL (    1446 calls)

     Called by h_psi:
     h_psi:calbec :      0.14s CPU      0.15s WALL (    2322 calls)
     vloc_psi     :      4.26s CPU      4.47s WALL (    2322 calls)
     add_vuspsi   :      0.06s CPU      0.06s WALL (    2322 calls)

     General routines
     calbec       :      0.20s CPU      0.21s WALL (    3490 calls)
     fft          :      0.02s CPU      0.04s WALL (     157 calls)
     ffts         :      0.02s CPU      0.03s WALL (     201 calls)
     fftw         :      4.70s CPU      4.94s WALL (   59063 calls)
 
     Parallel routines
 
     PWSCF        :      8.50s CPU     16.62s WALL

 
   This run was terminated on:  11:19:43   6May2026            

=------------------------------------------------------------------------------=
   JOB DONE.
=------------------------------------------------------------------------------=
