
     Program BANDS v.7.1 starts on 29Apr2026 at  9:51:22 

     This program is part of the open-source Quantum ESPRESSO suite
     for quantum simulation of materials; please cite
         "P. Giannozzi et al., J. Phys.:Condens. Matter 21 395502 (2009);
         "P. Giannozzi et al., J. Phys.:Condens. Matter 29 465901 (2017);
         "P. Giannozzi et al., J. Chem. Phys. 152 154105 (2020);
          URL http://www.quantum-espresso.org", 
     in publications or presentations arising from this work. More details at
     http://www.quantum-espresso.org/quote

     Parallel version (MPI & OpenMP), running on      16 processor cores
     Number of MPI processes:                16
     Threads/MPI process:                     1

     MPI processes distributed on     1 nodes
     R & G space division:  proc/nbgrp/npool/nimage =      16
     91704 MiB available memory on the printing compute node when the environment starts
 

     Reading xml data from directory:

     ../output/AlN.save/
     file Al.pbe-n-kjpaw_psl.1.0.0.UPF: wavefunction(s)  3S 3P renormalized
     file N.pbe-n-kjpaw_psl.1.0.0.UPF: wavefunction(s)  2S renormalized

     IMPORTANT: XC functional enforced from input :
     Exchange-correlation= PBE
                           (   1   4   3   4   0   0   0)
     Any further DFT definition will be discarded
     Please, verify this is what you really want

 
     Parallelization info
     --------------------
     sticks:   dense  smooth     PW     G-vecs:    dense   smooth      PW
     Min         102     102     28                 2724     2724     410
     Max         104     104     29                 2726     2726     412
     Sum        1639    1639    463                43599    43599    6567
 
     Using Slab Decomposition
 
     Reading collected, re-writing distributed wavefunctions
     high-symmetry point:  0.0000 0.0000 0.0000   x coordinate   0.0000
     high-symmetry point: -0.7071 0.0000 0.0000   x coordinate   0.7071
     high-symmetry point: -0.7071 0.3536 0.0000   x coordinate   1.0607
     high-symmetry point: -0.5303 0.5303 0.0000   x coordinate   1.3107
     high-symmetry point:  0.0000 0.0000 0.0000   x coordinate   2.0607
     high-symmetry point: -0.3536 0.3536 0.3536   x coordinate   2.6730

     Plottable bands (eV) written to file AlN.bands.dat.gnu
     Bands written to file AlN.bands.dat

 **************************************************************************

                    xk=(   0.00000,   0.00000,   0.00000  )

     point group O_h (m-3m) 
     there are 10 classes
     the character table:

       E     8C3   3C2   6C4   6C2'  i     8S6   3s_h  6S4   6s_d 
A_1g   1.00  1.00  1.00  1.00  1.00  1.00  1.00  1.00  1.00  1.00
A_2g   1.00  1.00  1.00 -1.00 -1.00  1.00  1.00  1.00 -1.00 -1.00
E_g    2.00 -1.00  2.00  0.00  0.00  2.00 -1.00  2.00  0.00  0.00
T_1g   3.00  0.00 -1.00  1.00 -1.00  3.00  0.00 -1.00  1.00 -1.00
T_2g   3.00  0.00 -1.00 -1.00  1.00  3.00  0.00 -1.00 -1.00  1.00
A_1u   1.00  1.00  1.00  1.00  1.00 -1.00 -1.00 -1.00 -1.00 -1.00
A_2u   1.00  1.00  1.00 -1.00 -1.00 -1.00 -1.00 -1.00  1.00  1.00
E_u    2.00 -1.00  2.00  0.00  0.00 -2.00  1.00 -2.00  0.00  0.00
T_1u   3.00  0.00 -1.00  1.00 -1.00 -3.00  0.00  1.00 -1.00  1.00
T_2u   3.00  0.00 -1.00 -1.00  1.00 -3.00  0.00  1.00  1.00 -1.00

     the symmetry operations in each class and the name of the first element:

     E        1
                                                                 
     8C3     17   19   20   18   24   21   22   23
                                                                 
     3C2      2    4    3
                                                                 
     6C4      7    8   15   16   12   11
                                                                 
     6C2'     5    6   14   13   10    9
                                                                 
     i       25
                                                                 
     8S6     41   43   44   42   48   45   46   47
                                                                 
     3s_h    26   28   27
                                                                 
     6S4     31   32   39   40   36   35
                                                                 
     6s_d    29   30   38   37   34   33
                                                                 

     Band symmetry, O_h (m-3m)  point group:

     e(  1 -  1) =     -6.47318  eV     1   --> A_1g G_1   G_1+
     e(  2 -  4) =     10.91948  eV     3   --> T_1u G_15  G_4-
     e(  5 -  5) =     16.30498  eV     1   --> A_1g G_1   G_1+
     e(  6 -  8) =     23.03145  eV     3   --> T_2g G_25' G_5+

 **************************************************************************

 **************************************************************************

                    xk=(  -0.03536,  -0.00000,   0.00000  )

     point group C_4v (4mm) 
     there are  5 classes
     the character table:

       E     2C4   C2    2s_v  2s_d 
A_1    1.00  1.00  1.00  1.00  1.00
A_2    1.00  1.00  1.00 -1.00 -1.00
B_1    1.00 -1.00  1.00  1.00 -1.00
B_2    1.00 -1.00  1.00 -1.00  1.00
E      2.00  0.00 -2.00  0.00  0.00

     the symmetry operations in each class and the name of the first element:

     E        1
                                                                 
     2C4      3    4
                                                                 
     C2       2
                                                                 
     2s_v     5    6
                                                                 
     2s_d     7    8
                                                                 

     Band symmetry, C_4v (4mm)  point group:

     e(  1 -  1) =     -6.45627  eV     1   --> A_1  G_1 D_1   
     e(  2 -  2) =     10.84993  eV     1   --> A_1  G_1 D_1   
     e(  3 -  4) =     10.89511  eV     2   --> E    G_5 D_5   
     e(  5 -  5) =     16.37278  eV     1   --> A_1  G_1 D_1   
     e(  6 -  6) =     22.89786  eV     1   --> B_2  G_4 D_2'  
     e(  7 -  8) =     23.07100  eV     2   --> E    G_5 D_5   

 **************************************************************************

 **************************************************************************

                    xk=(  -0.07071,  -0.00000,   0.00000  )

     Band symmetry, C_4v (4mm)  point group:

     e(  1 -  1) =     -6.40567  eV     1   --> A_1  G_1 D_1   
     e(  2 -  2) =     10.65179  eV     1   --> A_1  G_1 D_1   
     e(  3 -  4) =     10.82358  eV     2   --> E    G_5 D_5   
     e(  5 -  5) =     16.56507  eV     1   --> A_1  G_1 D_1   
     e(  6 -  6) =     22.54326  eV     1   --> B_2  G_4 D_2'  
     e(  7 -  8) =     23.18727  eV     2   --> E    G_5 D_5   

 **************************************************************************

 **************************************************************************

                    xk=(  -0.10607,  -0.00000,   0.00000  )

     Band symmetry, C_4v (4mm)  point group:

     e(  1 -  1) =     -6.32171  eV     1   --> A_1  G_1 D_1   
     e(  2 -  2) =     10.35024  eV     1   --> A_1  G_1 D_1   
     e(  3 -  4) =     10.70928  eV     2   --> E    G_5 D_5   
     e(  5 -  5) =     16.85452  eV     1   --> A_1  G_1 D_1   
     e(  6 -  6) =     22.05661  eV     1   --> B_2  G_4 D_2'  
     e(  7 -  8) =     23.37347  eV     2   --> E    G_5 D_5   

 **************************************************************************

 **************************************************************************

                    xk=(  -0.14142,  -0.00000,   0.00000  )

     Band symmetry, C_4v (4mm)  point group:

     e(  1 -  1) =     -6.20496  eV     1   --> A_1  G_1 D_1   
     e(  2 -  2) =      9.97361  eV     1   --> A_1  G_1 D_1   
     e(  3 -  4) =     10.55871  eV     2   --> E    G_5 D_5   
     e(  5 -  5) =     17.20851  eV     1   --> A_1  G_1 D_1   
     e(  6 -  6) =     21.50894  eV     1   --> B_2  G_4 D_2'  
     e(  7 -  8) =     23.61936  eV     2   --> E    G_5 D_5   

 **************************************************************************

 **************************************************************************

                    xk=(  -0.17678,   0.00000,   0.00000  )

     Band symmetry, C_4v (4mm)  point group:

     e(  1 -  1) =     -6.05624  eV     1   --> A_1  G_1 D_1   
     e(  2 -  2) =      9.54596  eV     1   --> A_1  G_1 D_1   
     e(  3 -  4) =     10.37959  eV     2   --> E    G_5 D_5   
     e(  5 -  5) =     17.59490  eV     1   --> A_1  G_1 D_1   
     e(  6 -  6) =     20.94311  eV     1   --> B_2  G_4 D_2'  
     e(  7 -  8) =     23.91252  eV     2   --> E    G_5 D_5   

 **************************************************************************

 **************************************************************************

                    xk=(  -0.21213,  -0.00000,   0.00000  )

     Band symmetry, C_4v (4mm)  point group:

     e(  1 -  1) =     -5.87666  eV     1   --> A_1  G_1 D_1   
     e(  2 -  2) =      9.08526  eV     1   --> A_1  G_1 D_1   
     e(  3 -  4) =     10.17998  eV     2   --> E    G_5 D_5   
     e(  5 -  5) =     17.98042  eV     1   --> A_1  G_1 D_1   
     e(  6 -  6) =     20.38329  eV     1   --> B_2  G_4 D_2'  
     e(  7 -  7) =     23.52996  eV     1   --> A_1  G_1 D_1   
     e(  8 -  8) =     24.23977  eV     1   -->   ?

 **************************************************************************

 **************************************************************************

                    xk=(  -0.24749,  -0.00000,   0.00000  )

     Band symmetry, C_4v (4mm)  point group:

     e(  1 -  1) =     -5.66763  eV     1   --> A_1  G_1 D_1   
     e(  2 -  2) =      8.60433  eV     1   --> A_1  G_1 D_1   
     e(  3 -  4) =      9.96762  eV     2   --> E    G_5 D_5   
     e(  5 -  5) =     18.32285  eV     1   --> A_1  G_1 D_1   
     e(  6 -  6) =     19.84327  eV     1   --> B_2  G_4 D_2'  
     e(  7 -  7) =     22.81792  eV     1   --> A_1  G_1 D_1   
     e(  8 -  8) =     24.58846  eV     1   -->   ?

 **************************************************************************

 **************************************************************************

                    xk=(  -0.28284,  -0.00000,   0.00000  )

     Band symmetry, C_4v (4mm)  point group:

     e(  1 -  1) =     -5.43097  eV     1   --> A_1  G_1 D_1   
     e(  2 -  2) =      8.11227  eV     1   --> A_1  G_1 D_1   
     e(  3 -  4) =      9.74956  eV     2   --> E    G_5 D_5   
     e(  5 -  5) =     18.55890  eV     1   --> A_1  G_1 D_1   
     e(  6 -  6) =     19.33126  eV     1   --> B_2  G_4 D_2'  
     e(  7 -  7) =     22.26390  eV     1   --> A_1  G_1 D_1   
     e(  8 -  8) =     24.94748  eV     1   -->   ?

 **************************************************************************

 **************************************************************************

                    xk=(  -0.31820,  -0.00000,   0.00000  )

     Band symmetry, C_4v (4mm)  point group:

     e(  1 -  1) =     -5.16893  eV     1   --> A_1  G_1 D_1   
     e(  2 -  2) =      7.61569  eV     1   --> A_1  G_1 D_1   
     e(  3 -  4) =      9.53198  eV     2   --> E    G_5 D_5   
     e(  5 -  5) =     18.60504  eV     1   --> A_1  G_1 D_1   
     e(  6 -  6) =     18.85233  eV     1   --> B_2  G_4 D_2'  
     e(  7 -  7) =     21.94994  eV     1   --> A_1  G_1 D_1   
     e(  8 -  8) =     25.30781  eV     1   -->   ?

 **************************************************************************

 **************************************************************************

                    xk=(  -0.35355,   0.00000,   0.00000  )

     Band symmetry, C_4v (4mm)  point group:

     e(  1 -  1) =     -4.88433  eV     1   --> A_1  G_1 D_1   
     e(  2 -  2) =      7.11976  eV     1   --> A_1  G_1 D_1   
     e(  3 -  4) =      9.32009  eV     2   --> E    G_5 D_5   
     e(  5 -  5) =     18.40977  eV     1   --> B_2  G_4 D_2'  
     e(  6 -  6) =     18.41644  eV     1   --> A_1  G_1 D_1   
     e(  7 -  7) =     21.92020  eV     1   --> A_1  G_1 D_1   
     e(  8 -  8) =     25.66251  eV     1   -->   ?

 **************************************************************************

 **************************************************************************

                    xk=(  -0.38891,  -0.00000,   0.00000  )

     Band symmetry, C_4v (4mm)  point group:

     e(  1 -  1) =     -4.58073  eV     1   --> A_1  G_1 D_1   
     e(  2 -  2) =      6.62892  eV     1   --> A_1  G_1 D_1   
     e(  3 -  4) =      9.11828  eV     2   --> E    G_5 D_5   
     e(  5 -  5) =     18.00577  eV     1   --> B_2  G_4 D_2'  
     e(  6 -  6) =     18.04878  eV     1   --> A_1  G_1 D_1   
     e(  7 -  7) =     22.11843  eV     1   --> A_1  G_1 D_1   
     e(  8 -  8) =     26.00640  eV     1   -->   ?

 **************************************************************************

 **************************************************************************

                    xk=(  -0.42426,  -0.00000,   0.00000  )

     Band symmetry, C_4v (4mm)  point group:

     e(  1 -  1) =     -4.26263  eV     1   --> A_1  G_1 D_1   
     e(  2 -  2) =      6.14756  eV     1   --> A_1  G_1 D_1   
     e(  3 -  4) =      8.93012  eV     2   --> E    G_5 D_5   
     e(  5 -  5) =     17.59809  eV     1   --> A_1  G_1 D_1   
     e(  6 -  6) =     17.64185  eV     1   --> B_2  G_4 D_2'  
     e(  7 -  7) =     22.44744  eV     1   --> A_1  G_1 D_1   
     e(  8 -  8) =     26.33529  eV     1   -->   ?

 **************************************************************************

 **************************************************************************

                    xk=(  -0.45962,  -0.00000,   0.00000  )

     Band symmetry, C_4v (4mm)  point group:

     e(  1 -  1) =     -3.93576  eV     1   --> A_1  G_1 D_1   
     e(  2 -  2) =      5.68068  eV     1   --> A_1  G_1 D_1   
     e(  3 -  4) =      8.75853  eV     2   --> E    G_5 D_5   
     e(  5 -  5) =     17.13334  eV     1   --> A_1  G_1 D_1   
     e(  6 -  6) =     17.31908  eV     1   --> B_2  G_4 D_2'  
     e(  7 -  7) =     22.83580  eV     1   --> A_1  G_1 D_1   
     e(  8 -  8) =     26.64530  eV     1   -->   ?

 **************************************************************************

 **************************************************************************

                    xk=(  -0.49497,  -0.00000,   0.00000  )

     Band symmetry, C_4v (4mm)  point group:

     e(  1 -  1) =     -3.60752  eV     1   --> A_1  G_1 D_1   
     e(  2 -  2) =      5.23455  eV     1   --> A_1  G_1 D_1   
     e(  3 -  4) =      8.60584  eV     2   --> E    G_5 D_5   
     e(  5 -  5) =     16.69340  eV     1   --> A_1  G_1 D_1   
     e(  6 -  6) =     17.03821  eV     1   --> B_2  G_4 D_2'  
     e(  7 -  7) =     23.24041  eV     1   --> A_1  G_1 D_1   
     e(  8 -  8) =     26.93219  eV     1   -->   ?

 **************************************************************************

 **************************************************************************

                    xk=(  -0.53033,   0.00000,   0.00000  )

     Band symmetry, C_4v (4mm)  point group:

     e(  1 -  1) =     -3.28751  eV     1   --> A_1  G_1 D_1   
     e(  2 -  2) =      4.81749  eV     1   --> A_1  G_1 D_1   
     e(  3 -  4) =      8.47392  eV     2   --> E    G_5 D_5   
     e(  5 -  5) =     16.29999  eV     1   --> A_1  G_1 D_1   
     e(  6 -  6) =     16.79982  eV     1   --> B_2  G_4 D_2'  
     e(  7 -  7) =     23.63300  eV     1   --> A_1  G_1 D_1   
     e(  8 -  8) =     27.19102  eV     1   -->   ?

 **************************************************************************

 **************************************************************************

                    xk=(  -0.56569,  -0.00000,   0.00000  )

     Band symmetry, C_4v (4mm)  point group:

     e(  1 -  1) =     -2.98811  eV     1   --> A_1  G_1 D_1   
     e(  2 -  2) =      4.44061  eV     1   --> A_1  G_1 D_1   
     e(  3 -  4) =      8.36421  eV     2   --> E    G_5 D_5   
     e(  5 -  5) =     15.96604  eV     1   --> A_1  G_1 D_1   
     e(  6 -  6) =     16.60431  eV     1   --> B_2  G_4 D_2'  
     e(  7 -  7) =     23.99161  eV     1   --> A_1  G_1 D_1   
     e(  8 -  8) =     27.41598  eV     1   -->   ?

 **************************************************************************

 **************************************************************************

                    xk=(  -0.60104,  -0.00000,   0.00000  )

     Band symmetry, C_4v (4mm)  point group:

     e(  1 -  1) =     -2.72485  eV     1   --> A_1  G_1 D_1   
     e(  2 -  2) =      4.11832  eV     1   --> A_1  G_1 D_1   
     e(  3 -  4) =      8.27781  eV     2   --> E    G_5 D_5   
     e(  5 -  5) =     15.69969  eV     1   --> A_1  G_1 D_1   
     e(  6 -  6) =     16.45197  eV     1   --> B_2  G_4 D_2'  
     e(  7 -  7) =     24.29679  eV     1   --> A_1  G_1 D_1   
     e(  8 -  8) =     27.60065  eV     1   -->   ?

 **************************************************************************

 **************************************************************************

                    xk=(  -0.63640,  -0.00000,   0.00000  )

     Band symmetry, C_4v (4mm)  point group:

     e(  1 -  1) =     -2.51603  eV     1   --> A_1  G_1 D_1   
     e(  2 -  2) =      3.86800  eV     1   --> A_1  G_1 D_1   
     e(  3 -  4) =      8.21555  eV     2   --> E    G_5 D_5   
     e(  5 -  5) =     15.50619  eV     1   --> A_1  G_1 D_1   
     e(  6 -  6) =     16.34303  eV     1   --> B_2  G_4 D_2'  
     e(  7 -  7) =     24.53072  eV     1   --> A_1  G_1 D_1   
     e(  8 -  8) =     27.73853  eV     1   -->   ?

 **************************************************************************

 **************************************************************************

                    xk=(  -0.67175,  -0.00000,   0.00000  )

     Band symmetry, C_4v (4mm)  point group:

     e(  1 -  1) =     -2.38056  eV     1   --> A_1  G_1 D_1   
     e(  2 -  2) =      3.70790  eV     1   --> A_1  G_1 D_1   
     e(  3 -  4) =      8.17798  eV     2   --> E    G_5 D_5   
     e(  5 -  5) =     15.38887  eV     1   --> A_1  G_1 D_1   
     e(  6 -  6) =     16.27760  eV     1   --> B_2  G_4 D_2'  
     e(  7 -  7) =     24.67817  eV     1   --> A_1  G_1 D_1   
     e(  8 -  8) =     27.82391  eV     1   -->   ?

 **************************************************************************

 **************************************************************************

                    xk=(  -0.70711,   0.00000,   0.00000  )

     point group D_4h(4/mmm)
     there are 10 classes
     the character table:

       E     2C4   C2    2C2'  2C2'' i     2S4   s_h   2s_v  2s_d 
A_1g   1.00  1.00  1.00  1.00  1.00  1.00  1.00  1.00  1.00  1.00
A_2g   1.00  1.00  1.00 -1.00 -1.00  1.00  1.00  1.00 -1.00 -1.00
B_1g   1.00 -1.00  1.00  1.00 -1.00  1.00 -1.00  1.00  1.00 -1.00
B_2g   1.00 -1.00  1.00 -1.00  1.00  1.00 -1.00  1.00 -1.00  1.00
E_g    2.00  0.00 -2.00  0.00  0.00  2.00  0.00 -2.00  0.00  0.00
A_1u   1.00  1.00  1.00  1.00  1.00 -1.00 -1.00 -1.00 -1.00 -1.00
A_2u   1.00  1.00  1.00 -1.00 -1.00 -1.00 -1.00 -1.00  1.00  1.00
B_1u   1.00 -1.00  1.00  1.00 -1.00 -1.00  1.00 -1.00 -1.00  1.00
B_2u   1.00 -1.00  1.00 -1.00  1.00 -1.00  1.00 -1.00  1.00 -1.00
E_u    2.00  0.00 -2.00  0.00  0.00 -2.00  0.00  2.00  0.00  0.00

     the symmetry operations in each class and the name of the first element:

     E        1
                                                                 
     2C4      7    8
                                                                 
     C2       4
                                                                 
     2C2'     2    3
                                                                 
     2C2''    5    6
                                                                 
     i        9
                                                                 
     2S4     15   16
                                                                 
     s_h     12
                                                                 
     2s_v    10   11
                                                                 
     2s_d    13   14
                                                                 

     Band symmetry, D_4h(4/mmm) point group:

     e(  1 -  1) =     -2.33345  eV     1   --> A_1g X_1  M_1  
     e(  2 -  2) =      3.65263  eV     1   --> A_2u X_4' M_4' 
     e(  3 -  4) =      8.16542  eV     2   --> E_u  X_5' M_5' 
     e(  5 -  5) =     15.34957  eV     1   --> A_1g X_1  M_1  
     e(  6 -  6) =     16.25579  eV     1   --> B_2g X_3  M_3  
     e(  7 -  7) =     24.72859  eV     1   --> A_2u X_4' M_4' 
     e(  8 -  8) =     27.85284  eV     1   -->   ?

 **************************************************************************

 **************************************************************************

                    xk=(  -0.70711,   0.01768,   0.00000  )

     point group C_2v (mm2) 
     there are  4 classes
     the character table:

       E     C2    s_v   s_v' 
A_1    1.00  1.00  1.00  1.00
A_2    1.00  1.00 -1.00 -1.00
B_1    1.00 -1.00  1.00 -1.00
B_2    1.00 -1.00 -1.00  1.00

     the symmetry operations in each class and the name of the first element:

     E        1
                                                                 
     C2       2
                                                                 
     s_v      3
                                                                 
     s_v'     4
                                                                 

     Band symmetry, C_2v (mm2)  point group:

     e(  1 -  1) =     -2.33254  eV     1   --> A_1  D_1  S_1  
     e(  2 -  2) =      3.65693  eV     1   --> B_1  D_3  S_3  
     e(  3 -  3) =      8.15147  eV     1   --> B_2  D_4  S_4  
     e(  4 -  4) =      8.15714  eV     1   --> A_1  D_1  S_1  
     e(  5 -  5) =     15.36665  eV     1   --> A_1  D_1  S_1  
     e(  6 -  6) =     16.27738  eV     1   --> B_2  D_4  S_4  
     e(  7 -  7) =     24.72175  eV     1   --> B_1  D_3  S_3  
     e(  8 -  8) =     27.81895  eV     1   --> A_1  D_1  S_1  

 **************************************************************************

 **************************************************************************

                    xk=(  -0.70711,   0.03536,   0.00000  )

     Band symmetry, C_2v (mm2)  point group:

     e(  1 -  1) =     -2.32983  eV     1   --> A_1  D_1  S_1  
     e(  2 -  2) =      3.66985  eV     1   --> B_1  D_3  S_3  
     e(  3 -  3) =      8.11010  eV     1   --> B_2  D_4  S_4  
     e(  4 -  4) =      8.13265  eV     1   --> A_1  D_1  S_1  
     e(  5 -  5) =     15.41753  eV     1   --> A_1  D_1  S_1  
     e(  6 -  6) =     16.34160  eV     1   --> B_2  D_4  S_4  
     e(  7 -  7) =     24.70117  eV     1   --> B_1  D_3  S_3  
     e(  8 -  8) =     27.71948  eV     1   --> A_1  D_1  S_1  

 **************************************************************************

 **************************************************************************

                    xk=(  -0.70711,   0.05303,   0.00000  )

     Band symmetry, C_2v (mm2)  point group:

     e(  1 -  1) =     -2.32537  eV     1   --> A_1  D_1  S_1  
     e(  2 -  2) =      3.69135  eV     1   --> B_1  D_3  S_3  
     e(  3 -  3) =      8.04275  eV     1   --> B_2  D_4  S_4  
     e(  4 -  4) =      8.09298  eV     1   --> A_1  D_1  S_1  
     e(  5 -  5) =     15.50108  eV     1   --> A_1  D_1  S_1  
     e(  6 -  6) =     16.44693  eV     1   --> B_2  D_4  S_4  
     e(  7 -  7) =     24.66670  eV     1   --> B_1  D_3  S_3  
     e(  8 -  8) =     27.56046  eV     1   --> A_1  D_1  S_1  

 **************************************************************************

 **************************************************************************

                    xk=(  -0.70711,   0.07071,  -0.00000  )

     Band symmetry, C_2v (mm2)  point group:

     e(  1 -  1) =     -2.31927  eV     1   --> A_1  D_1  S_1  
     e(  2 -  2) =      3.72144  eV     1   --> B_1  D_3  S_3  
     e(  3 -  3) =      7.95161  eV     1   --> B_2  D_4  S_4  
     e(  4 -  4) =      8.03975  eV     1   --> A_1  D_1  S_1  
     e(  5 -  5) =     15.61558  eV     1   --> A_1  D_1  S_1  
     e(  6 -  6) =     16.59096  eV     1   --> B_2  D_4  S_4  
     e(  7 -  7) =     24.61810  eV     1   --> B_1  D_3  S_3  
     e(  8 -  8) =     27.35028  eV     1   --> A_1  D_1  S_1  

 **************************************************************************

 **************************************************************************

                    xk=(  -0.70711,   0.08839,  -0.00000  )

     Band symmetry, C_2v (mm2)  point group:

     e(  1 -  1) =     -2.31165  eV     1   --> A_1  D_1  S_1  
     e(  2 -  2) =      3.76007  eV     1   --> B_1  D_3  S_3  
     e(  3 -  3) =      7.83938  eV     1   --> B_2  D_4  S_4  
     e(  4 -  4) =      7.97500  eV     1   --> A_1  D_1  S_1  
     e(  5 -  5) =     15.75877  eV     1   --> A_1  D_1  S_1  
     e(  6 -  6) =     16.77072  eV     1   --> B_2  D_4  S_4  
     e(  7 -  7) =     24.55501  eV     1   --> B_1  D_3  S_3  
     e(  8 -  8) =     27.09811  eV     1   --> A_1  D_1  S_1  

 **************************************************************************

 **************************************************************************

                    xk=(  -0.70711,   0.10607,   0.00000  )

     Band symmetry, C_2v (mm2)  point group:

     e(  1 -  1) =     -2.30270  eV     1   --> A_1  D_1  S_1  
     e(  2 -  2) =      3.80722  eV     1   --> B_1  D_3  S_3  
     e(  3 -  3) =      7.70904  eV     1   --> B_2  D_4  S_4  
     e(  4 -  4) =      7.90104  eV     1   --> A_1  D_1  S_1  
     e(  5 -  5) =     15.92807  eV     1   --> A_1  D_1  S_1  
     e(  6 -  6) =     16.98285  eV     1   --> B_2  D_4  S_4  
     e(  7 -  7) =     24.47699  eV     1   --> B_1  D_3  S_3  
     e(  8 -  8) =     26.81278  eV     1   --> A_1  D_1  S_1  

 **************************************************************************

 **************************************************************************

                    xk=(  -0.70711,   0.12374,  -0.00000  )

     Band symmetry, C_2v (mm2)  point group:

     e(  1 -  1) =     -2.29261  eV     1   --> A_1  D_1  S_1  
     e(  2 -  2) =      3.86283  eV     1   --> B_1  D_3  S_3  
     e(  3 -  3) =      7.56364  eV     1   --> B_2  D_4  S_4  
     e(  4 -  4) =      7.82032  eV     1   --> A_1  D_1  S_1  
     e(  5 -  5) =     16.12062  eV     1   --> A_1  D_1  S_1  
     e(  6 -  6) =     17.22385  eV     1   --> B_2  D_4  S_4  
     e(  7 -  7) =     24.38350  eV     1   --> B_1  D_3  S_3  
     e(  8 -  8) =     26.50224  eV     1   --> A_1  D_1  S_1  

 **************************************************************************

 **************************************************************************

                    xk=(  -0.70711,   0.14142,  -0.00000  )

     Band symmetry, C_2v (mm2)  point group:

     e(  1 -  1) =     -2.28162  eV     1   --> A_1  D_1  S_1  
     e(  2 -  2) =      3.92685  eV     1   --> B_1  D_3  S_3  
     e(  3 -  3) =      7.40613  eV     1   --> B_2  D_4  S_4  
     e(  4 -  4) =      7.73527  eV     1   --> A_1  D_1  S_1  
     e(  5 -  5) =     16.33343  eV     1   --> A_1  D_1  S_1  
     e(  6 -  6) =     17.49020  eV     1   --> B_2  D_4  S_4  
     e(  7 -  7) =     24.27393  eV     1   --> B_1  D_3  S_3  
     e(  8 -  8) =     26.17335  eV     1   --> A_1  D_1  S_1  

 **************************************************************************

 **************************************************************************

                    xk=(  -0.70711,   0.15910,  -0.00000  )

     Band symmetry, C_2v (mm2)  point group:

     e(  1 -  1) =     -2.26998  eV     1   --> A_1  D_1  S_1  
     e(  2 -  2) =      3.99921  eV     1   --> B_1  D_3  S_3  
     e(  3 -  3) =      7.23923  eV     1   --> B_2  D_4  S_4  
     e(  4 -  4) =      7.64825  eV     1   --> A_1  D_1  S_1  
     e(  5 -  5) =     16.56335  eV     1   --> A_1  D_1  S_1  
     e(  6 -  6) =     17.77850  eV     1   --> B_2  D_4  S_4  
     e(  7 -  7) =     24.14761  eV     1   --> B_1  D_3  S_3  
     e(  8 -  8) =     25.83208  eV     1   --> A_1  D_1  S_1  

 **************************************************************************

 **************************************************************************

                    xk=(  -0.70711,   0.17678,   0.00000  )

     Band symmetry, C_2v (mm2)  point group:

     e(  1 -  1) =     -2.25798  eV     1   --> A_1  D_1  S_1  
     e(  2 -  2) =      4.07983  eV     1   --> B_1  D_3  S_3  
     e(  3 -  3) =      7.06542  eV     1   --> B_2  D_4  S_4  
     e(  4 -  4) =      7.56147  eV     1   --> A_1  D_1  S_1  
     e(  5 -  5) =     16.80711  eV     1   --> A_1  D_1  S_1  
     e(  6 -  6) =     18.08547  eV     1   --> B_2  D_4  S_4  
     e(  7 -  7) =     24.00383  eV     1   --> B_1  D_3  S_3  
     e(  8 -  8) =     25.48371  eV     1   --> A_1  D_1  S_1  

 **************************************************************************

 **************************************************************************

                    xk=(  -0.70711,   0.19445,   0.00000  )

     Band symmetry, C_2v (mm2)  point group:

     e(  1 -  1) =     -2.24590  eV     1   --> A_1  D_1  S_1  
     e(  2 -  2) =      4.16862  eV     1   --> B_1  D_3  S_3  
     e(  3 -  3) =      6.88688  eV     1   --> B_2  D_4  S_4  
     e(  4 -  4) =      7.47696  eV     1   --> A_1  D_1  S_1  
     e(  5 -  5) =     17.06121  eV     1   --> A_1  D_1  S_1  
     e(  6 -  6) =     18.40799  eV     1   --> B_2  D_4  S_4  
     e(  7 -  7) =     23.84191  eV     1   --> B_1  D_3  S_3  
     e(  8 -  8) =     25.13310  eV     1   --> A_1  D_1  S_1  

 **************************************************************************

 **************************************************************************

                    xk=(  -0.70711,   0.21213,   0.00000  )

     Band symmetry, C_2v (mm2)  point group:

     e(  1 -  1) =     -2.23404  eV     1   --> A_1  D_1  S_1  
     e(  2 -  2) =      4.26547  eV     1   --> B_1  D_3  S_3  
     e(  3 -  3) =      6.70554  eV     1   --> B_2  D_4  S_4  
     e(  4 -  4) =      7.39654  eV     1   --> A_1  D_1  S_1  
     e(  5 -  5) =     17.32177  eV     1   --> A_1  D_1  S_1  
     e(  6 -  6) =     18.74307  eV     1   --> B_2  D_4  S_4  
     e(  7 -  7) =     23.66122  eV     1   --> B_1  D_3  S_3  
     e(  8 -  8) =     24.78505  eV     1   --> A_1  D_1  S_1  

 **************************************************************************

 **************************************************************************

                    xk=(  -0.70711,   0.22981,   0.00000  )

     Band symmetry, C_2v (mm2)  point group:

     e(  1 -  1) =     -2.22270  eV     1   --> A_1  D_1  S_1  
     e(  2 -  2) =      4.37025  eV     1   --> B_1  D_3  S_3  
     e(  3 -  3) =      6.52303  eV     1   --> B_2  D_4  S_4  
     e(  4 -  4) =      7.32185  eV     1   --> A_1  D_1  S_1  
     e(  5 -  5) =     17.58432  eV     1   --> A_1  D_1  S_1  
     e(  6 -  6) =     19.08782  eV     1   --> B_2  D_4  S_4  
     e(  7 -  7) =     23.46127  eV     1   --> B_1  D_3  S_3  
     e(  8 -  8) =     24.44462  eV     1   --> A_1  D_1  S_1  

 **************************************************************************

 **************************************************************************

                    xk=(  -0.70711,   0.24749,  -0.00000  )

     Band symmetry, C_2v (mm2)  point group:

     e(  1 -  1) =     -2.21218  eV     1   --> A_1  D_1  S_1  
     e(  2 -  2) =      4.48281  eV     1   --> B_1  D_3  S_3  
     e(  3 -  3) =      6.34079  eV     1   --> B_2  D_4  S_4  
     e(  4 -  4) =      7.25430  eV     1   --> A_1  D_1  S_1  
     e(  5 -  5) =     17.84347  eV     1   --> A_1  D_1  S_1  
     e(  6 -  6) =     19.43944  eV     1   --> B_2  D_4  S_4  
     e(  7 -  7) =     23.24178  eV     1   --> B_1  D_3  S_3  
     e(  8 -  8) =     24.11758  eV     1   --> A_1  D_1  S_1  

 **************************************************************************

 **************************************************************************

                    xk=(  -0.70711,   0.26517,   0.00000  )

     Band symmetry, C_2v (mm2)  point group:

     e(  1 -  1) =     -2.20274  eV     1   --> A_1  D_1  S_1  
     e(  2 -  2) =      4.60299  eV     1   --> B_1  D_3  S_3  
     e(  3 -  3) =      6.16003  eV     1   --> B_2  D_4  S_4  
     e(  4 -  4) =      7.19511  eV     1   --> A_1  D_1  S_1  
     e(  5 -  5) =     18.09252  eV     1   --> A_1  D_1  S_1  
     e(  6 -  6) =     19.79516  eV     1   --> B_2  D_4  S_4  
     e(  7 -  7) =     23.00274  eV     1   --> B_1  D_3  S_3  
     e(  8 -  8) =     23.81089  eV     1   --> A_1  D_1  S_1  

 **************************************************************************

 **************************************************************************

                    xk=(  -0.70711,   0.28284,   0.00000  )

     Band symmetry, C_2v (mm2)  point group:

     e(  1 -  1) =     -2.19465  eV     1   --> A_1  D_1  S_1  
     e(  2 -  2) =      4.73059  eV     1   --> B_1  D_3  S_3  
     e(  3 -  3) =      5.98179  eV     1   --> B_2  D_4  S_4  
     e(  4 -  4) =      7.14530  eV     1   --> A_1  D_1  S_1  
     e(  5 -  5) =     18.32289  eV     1   --> A_1  D_1  S_1  
     e(  6 -  6) =     20.15224  eV     1   --> B_2  D_4  S_4  
     e(  7 -  7) =     22.74448  eV     1   --> B_1  D_3  S_3  
     e(  8 -  8) =     23.53324  eV     1   --> A_1  D_1  S_1  

 **************************************************************************

 **************************************************************************

                    xk=(  -0.70711,   0.30052,  -0.00000  )

     Band symmetry, C_2v (mm2)  point group:

     e(  1 -  1) =     -2.18811  eV     1   --> A_1  D_1  S_1  
     e(  2 -  2) =      4.86537  eV     1   --> B_1  D_3  S_3  
     e(  3 -  3) =      5.80696  eV     1   --> B_2  D_4  S_4  
     e(  4 -  4) =      7.10570  eV     1   --> A_1  D_1  S_1  
     e(  5 -  5) =     18.52379  eV     1   --> A_1  D_1  S_1  
     e(  6 -  6) =     20.50793  eV     1   --> B_2  D_4  S_4  
     e(  7 -  7) =     22.46775  eV     1   --> B_1  D_3  S_3  
     e(  8 -  8) =     23.29552  eV     1   --> A_1  D_1  S_1  

 **************************************************************************

 **************************************************************************

                    xk=(  -0.70711,   0.31820,   0.00000  )

     Band symmetry, C_2v (mm2)  point group:

     e(  1 -  1) =     -2.18330  eV     1   --> A_1  D_1  S_1  
     e(  2 -  2) =      5.00708  eV     1   --> B_1  D_3  S_3  
     e(  3 -  3) =      5.63631  eV     1   --> B_2  D_4  S_4  
     e(  4 -  4) =      7.07696  eV     1   --> A_1  D_1  S_1  
     e(  5 -  5) =     18.68232  eV     1   --> A_1  D_1  S_1  
     e(  6 -  6) =     20.85954  eV     1   --> B_2  D_4  S_4  
     e(  7 -  7) =     22.17366  eV     1   --> B_1  D_3  S_3  
     e(  8 -  8) =     23.11068  eV     1   --> A_1  D_1  S_1  

 **************************************************************************

 **************************************************************************

                    xk=(  -0.70711,   0.33588,   0.00000  )

     Band symmetry, C_2v (mm2)  point group:

     e(  1 -  1) =     -2.18037  eV     1   --> A_1  D_1  S_1  
     e(  2 -  2) =      5.15542  eV     1   --> B_1  D_3  S_3  
     e(  3 -  3) =      5.47047  eV     1   --> B_2  D_4  S_4  
     e(  4 -  4) =      7.05953  eV     1   --> A_1  D_1  S_1  
     e(  5 -  5) =     18.78488  eV     1   --> A_1  D_1  S_1  
     e(  6 -  6) =     21.20440  eV     1   --> B_2  D_4  S_4  
     e(  7 -  7) =     21.86376  eV     1   --> B_1  D_3  S_3  
     e(  8 -  8) =     22.99232  eV     1   --> A_1  D_1  S_1  

 **************************************************************************

 **************************************************************************

                    xk=(  -0.70711,   0.35355,   0.00000  )

     point group D_2d (-42m)
     there are  5 classes
     the character table:

       E     2S4   C2    2C2'  2s_d 
A_1    1.00  1.00  1.00  1.00  1.00
A_2    1.00  1.00  1.00 -1.00 -1.00
B_1    1.00 -1.00  1.00  1.00 -1.00
B_2    1.00 -1.00  1.00 -1.00  1.00
E      2.00  0.00 -2.00  0.00  0.00

     the symmetry operations in each class and the name of the first element:

     E        1
                                                                 
     2S4      7    8
                                                                 
     C2       2
                                                                 
     2C2'     3    4
                                                                 
     2s_d     5    6
                                                                 

     Band symmetry, D_2d (-42m) point group:

     e(  1 -  1) =     -2.17938  eV     1   --> B_2  X_3  W_2  
     e(  2 -  3) =      5.31002  eV     2   --> E    X_5  W_3  
     e(  4 -  4) =      7.05369  eV     1   --> A_1  X_1  W_1  
     e(  5 -  5) =     18.82051  eV     1   --> A_1  X_1  W_1  
     e(  6 -  7) =     21.53995  eV     2   --> E    X_5  W_3  
     e(  8 -  8) =     22.95142  eV     1   --> B_2  X_3  W_2  

 **************************************************************************

 **************************************************************************

                    xk=(  -0.69827,   0.36239,   0.00000  )

     point group C_s (m)    
     there are  2 classes
     the character table:

       E     s    
A'     1.00  1.00
A''    1.00 -1.00

     the symmetry operations in each class and the name of the first element:

     E        1
                                                                 
     s        2
                                                                 

     Band symmetry, C_s (m)     point group:

     e(  1 -  1) =     -2.18068  eV     1   --> A'             
     e(  2 -  2) =      5.23297  eV     1   --> A''            
     e(  3 -  3) =      5.38523  eV     1   --> A'             
     e(  4 -  4) =      7.06169  eV     1   --> A'             
     e(  5 -  5) =     18.81082  eV     1   --> A'             
     e(  6 -  6) =     21.36977  eV     1   --> A'             
     e(  7 -  7) =     21.70371  eV     1   --> A''            
     e(  8 -  8) =     22.96814  eV     1   --> A'             

 **************************************************************************

 **************************************************************************

                    xk=(  -0.68943,   0.37123,   0.00000  )

     Band symmetry, C_s (m)     point group:

     e(  1 -  1) =     -2.18432  eV     1   --> A'             
     e(  2 -  2) =      5.15950  eV     1   --> A''            
     e(  3 -  3) =      5.45159  eV     1   --> A'             
     e(  4 -  4) =      7.08688  eV     1   --> A'             
     e(  5 -  5) =     18.78021  eV     1   --> A'             
     e(  6 -  6) =     21.19593  eV     1   --> A'             
     e(  7 -  7) =     21.86448  eV     1   --> A''            
     e(  8 -  8) =     23.01416  eV     1   --> A'             

 **************************************************************************

 **************************************************************************

                    xk=(  -0.68059,   0.38007,   0.00000  )

     Band symmetry, C_s (m)     point group:

     e(  1 -  1) =     -2.18992  eV     1   --> A'             
     e(  2 -  2) =      5.08965  eV     1   --> A''            
     e(  3 -  3) =      5.50704  eV     1   --> A'             
     e(  4 -  4) =      7.13045  eV     1   --> A'             
     e(  5 -  5) =     18.72665  eV     1   --> A'             
     e(  6 -  6) =     21.02708  eV     1   --> A'             
     e(  7 -  7) =     22.02159  eV     1   --> A''            
     e(  8 -  8) =     23.08425  eV     1   --> A'             

 **************************************************************************

 **************************************************************************

                    xk=(  -0.67175,   0.38891,   0.00000  )

     Band symmetry, C_s (m)     point group:

     e(  1 -  1) =     -2.19711  eV     1   --> A'             
     e(  2 -  2) =      5.02350  eV     1   --> A''            
     e(  3 -  3) =      5.55050  eV     1   --> A'             
     e(  4 -  4) =      7.19262  eV     1   --> A'             
     e(  5 -  5) =     18.64883  eV     1   --> A'             
     e(  6 -  6) =     20.86987  eV     1   --> A'             
     e(  7 -  7) =     22.17434  eV     1   --> A''            
     e(  8 -  8) =     23.17438  eV     1   --> A'             

 **************************************************************************

 **************************************************************************

                    xk=(  -0.66291,   0.39775,   0.00000  )

     Band symmetry, C_s (m)     point group:

     e(  1 -  1) =     -2.20554  eV     1   --> A'             
     e(  2 -  2) =      4.96110  eV     1   --> A''            
     e(  3 -  3) =      5.58198  eV     1   --> A'             
     e(  4 -  4) =      7.27239  eV     1   --> A'             
     e(  5 -  5) =     18.54669  eV     1   --> A'             
     e(  6 -  6) =     20.72875  eV     1   --> A'             
     e(  7 -  7) =     22.32205  eV     1   --> A''            
     e(  8 -  8) =     23.28150  eV     1   --> A'             

 **************************************************************************

 **************************************************************************

                    xk=(  -0.65407,   0.40659,   0.00000  )

     Band symmetry, C_s (m)     point group:

     e(  1 -  1) =     -2.21490  eV     1   --> A'             
     e(  2 -  2) =      4.90251  eV     1   --> A''            
     e(  3 -  3) =      5.60245  eV     1   --> A'             
     e(  4 -  4) =      7.36768  eV     1   --> A'             
     e(  5 -  5) =     18.42178  eV     1   --> A'             
     e(  6 -  6) =     20.60591  eV     1   --> A'             
     e(  7 -  7) =     22.46403  eV     1   --> A''            
     e(  8 -  8) =     23.40314  eV     1   --> A'             

 **************************************************************************

 **************************************************************************

                    xk=(  -0.64523,   0.41543,   0.00000  )

     Band symmetry, C_s (m)     point group:

     e(  1 -  1) =     -2.22487  eV     1   --> A'             
     e(  2 -  2) =      4.84777  eV     1   --> A''            
     e(  3 -  3) =      5.61357  eV     1   --> A'             
     e(  4 -  4) =      7.47570  eV     1   --> A'             
     e(  5 -  5) =     18.27725  eV     1   --> A'             
     e(  6 -  6) =     20.50154  eV     1   --> A'             
     e(  7 -  7) =     22.59961  eV     1   --> A''            
     e(  8 -  8) =     23.53726  eV     1   --> A'             

 **************************************************************************

 **************************************************************************

                    xk=(  -0.63640,   0.42426,   0.00000  )

     Band symmetry, C_s (m)     point group:

     e(  1 -  1) =     -2.23517  eV     1   --> A'             
     e(  2 -  2) =      4.79692  eV     1   --> A''            
     e(  3 -  3) =      5.61722  eV     1   --> A'             
     e(  4 -  4) =      7.59324  eV     1   --> A'             
     e(  5 -  5) =     18.11749  eV     1   --> A'             
     e(  6 -  6) =     20.41433  eV     1   --> A'             
     e(  7 -  7) =     22.72810  eV     1   --> A''            
     e(  8 -  8) =     23.68203  eV     1   --> A'             

 **************************************************************************

 **************************************************************************

                    xk=(  -0.62756,   0.43310,   0.00000  )

     Band symmetry, C_s (m)     point group:

     e(  1 -  1) =     -2.24554  eV     1   --> A'             
     e(  2 -  2) =      4.75001  eV     1   --> A''            
     e(  3 -  3) =      5.61528  eV     1   --> A'             
     e(  4 -  4) =      7.71702  eV     1   --> A'             
     e(  5 -  5) =     17.94757  eV     1   --> A'             
     e(  6 -  6) =     20.34214  eV     1   --> A'             
     e(  7 -  7) =     22.84888  eV     1   --> A''            
     e(  8 -  8) =     23.83577  eV     1   --> A'             

 **************************************************************************

 **************************************************************************

                    xk=(  -0.61872,   0.44194,   0.00000  )

     Band symmetry, C_s (m)     point group:

     e(  1 -  1) =     -2.25576  eV     1   --> A'             
     e(  2 -  2) =      4.70706  eV     1   --> A''            
     e(  3 -  3) =      5.60939  eV     1   --> A'             
     e(  4 -  4) =      7.84383  eV     1   --> A'             
     e(  5 -  5) =     17.77271  eV     1   --> A'             
     e(  6 -  6) =     20.28262  eV     1   --> A'             
     e(  7 -  7) =     22.96133  eV     1   --> A''            
     e(  8 -  8) =     23.99685  eV     1   --> A'             

 **************************************************************************

 **************************************************************************

                    xk=(  -0.60988,   0.45078,   0.00000  )

     Band symmetry, C_s (m)     point group:

     e(  1 -  1) =     -2.26562  eV     1   --> A'             
     e(  2 -  2) =      4.66812  eV     1   --> A''            
     e(  3 -  3) =      5.60097  eV     1   --> A'             
     e(  4 -  4) =      7.97057  eV     1   --> A'             
     e(  5 -  5) =     17.59790  eV     1   --> A'             
     e(  6 -  6) =     20.23357  eV     1   --> A'             
     e(  7 -  7) =     23.06487  eV     1   --> A''            
     e(  8 -  8) =     24.16363  eV     1   --> A'             

 **************************************************************************

 **************************************************************************

                    xk=(  -0.60104,   0.45962,   0.00000  )

     Band symmetry, C_s (m)     point group:

     e(  1 -  1) =     -2.27491  eV     1   --> A'             
     e(  2 -  2) =      4.63320  eV     1   --> A''            
     e(  3 -  3) =      5.59114  eV     1   --> A'             
     e(  4 -  4) =      8.09426  eV     1   --> A'             
     e(  5 -  5) =     17.42777  eV     1   --> A'             
     e(  6 -  6) =     20.19316  eV     1   --> A'             
     e(  7 -  7) =     23.15898  eV     1   --> A''            
     e(  8 -  8) =     24.33437  eV     1   --> A'             

 **************************************************************************

 **************************************************************************

                    xk=(  -0.59220,   0.46846,   0.00000  )

     Band symmetry, C_s (m)     point group:

     e(  1 -  1) =     -2.28349  eV     1   --> A'             
     e(  2 -  2) =      4.60234  eV     1   --> A''            
     e(  3 -  3) =      5.58082  eV     1   --> A'             
     e(  4 -  4) =      8.21205  eV     1   --> A'             
     e(  5 -  5) =     17.26653  eV     1   --> A'             
     e(  6 -  6) =     20.15992  eV     1   --> A'             
     e(  7 -  7) =     23.24317  eV     1   --> A''            
     e(  8 -  8) =     24.50708  eV     1   --> A'             

 **************************************************************************

 **************************************************************************

                    xk=(  -0.58336,   0.47730,   0.00000  )

     Band symmetry, C_s (m)     point group:

     e(  1 -  1) =     -2.29121  eV     1   --> A'             
     e(  2 -  2) =      4.57555  eV     1   --> A''            
     e(  3 -  3) =      5.57071  eV     1   --> A'             
     e(  4 -  4) =      8.32117  eV     1   --> A'             
     e(  5 -  5) =     17.11803  eV     1   --> A'             
     e(  6 -  6) =     20.13275  eV     1   --> A'             
     e(  7 -  7) =     23.31701  eV     1   --> A''            
     e(  8 -  8) =     24.67932  eV     1   --> A'             

 **************************************************************************

 **************************************************************************

                    xk=(  -0.57452,   0.48614,   0.00000  )

     Band symmetry, C_s (m)     point group:

     e(  1 -  1) =     -2.29795  eV     1   --> A'             
     e(  2 -  2) =      4.55285  eV     1   --> A''            
     e(  3 -  3) =      5.56138  eV     1   --> A'             
     e(  4 -  4) =      8.41898  eV     1   --> A'             
     e(  5 -  5) =     16.98573  eV     1   --> A'             
     e(  6 -  6) =     20.11081  eV     1   --> A'             
     e(  7 -  7) =     23.38013  eV     1   --> A''            
     e(  8 -  8) =     24.84785  eV     1   --> A'             

 **************************************************************************

 **************************************************************************

                    xk=(  -0.56569,   0.49497,   0.00000  )

     Band symmetry, C_s (m)     point group:

     e(  1 -  1) =     -2.30359  eV     1   --> A'             
     e(  2 -  2) =      4.53425  eV     1   --> A''            
     e(  3 -  3) =      5.55324  eV     1   --> A'             
     e(  4 -  4) =      8.50300  eV     1   --> A'             
     e(  5 -  5) =     16.87276  eV     1   --> A'             
     e(  6 -  6) =     20.09352  eV     1   --> A'             
     e(  7 -  7) =     23.43220  eV     1   --> A''            
     e(  8 -  8) =     25.00812  eV     1   --> A'             

 **************************************************************************

 **************************************************************************

                    xk=(  -0.55685,   0.50381,   0.00000  )

     Band symmetry, C_s (m)     point group:

     e(  1 -  1) =     -2.30807  eV     1   --> A'             
     e(  2 -  2) =      4.51978  eV     1   --> A''            
     e(  3 -  3) =      5.54660  eV     1   --> A'             
     e(  4 -  4) =      8.57098  eV     1   --> A'             
     e(  5 -  5) =     16.78183  eV     1   --> A'             
     e(  6 -  6) =     20.08044  eV     1   --> A'             
     e(  7 -  7) =     23.47297  eV     1   --> A''            
     e(  8 -  8) =     25.15336  eV     1   --> A'             

 **************************************************************************

 **************************************************************************

                    xk=(  -0.54801,   0.51265,   0.00000  )

     Band symmetry, C_s (m)     point group:

     e(  1 -  1) =     -2.31131  eV     1   --> A'             
     e(  2 -  2) =      4.50943  eV     1   --> A''            
     e(  3 -  3) =      5.54171  eV     1   --> A'             
     e(  4 -  4) =      8.62103  eV     1   --> A'             
     e(  5 -  5) =     16.71516  eV     1   --> A'             
     e(  6 -  6) =     20.07128  eV     1   --> A'             
     e(  7 -  7) =     23.50224  eV     1   --> A''            
     e(  8 -  8) =     25.27356  eV     1   --> A'             

 **************************************************************************

 **************************************************************************

                    xk=(  -0.53917,   0.52149,   0.00000  )

     Band symmetry, C_s (m)     point group:

     e(  1 -  1) =     -2.31328  eV     1   --> A'             
     e(  2 -  2) =      4.50322  eV     1   --> A''            
     e(  3 -  3) =      5.53871  eV     1   --> A'             
     e(  4 -  4) =      8.65168  eV     1   --> A'             
     e(  5 -  5) =     16.67446  eV     1   --> A'             
     e(  6 -  6) =     20.06585  eV     1   --> A'             
     e(  7 -  7) =     23.51985  eV     1   --> A''            
     e(  8 -  8) =     25.35521  eV     1   --> A'             

 **************************************************************************

 **************************************************************************

                    xk=(  -0.53033,   0.53033,   0.00000  )

     point group C_2v (mm2) 
     there are  4 classes
     the character table:

       E     C2    s_v   s_v' 
A_1    1.00  1.00  1.00  1.00
A_2    1.00  1.00 -1.00 -1.00
B_1    1.00 -1.00  1.00 -1.00
B_2    1.00 -1.00 -1.00  1.00

     the symmetry operations in each class and the name of the first element:

     E        1
                                                                 
     C2       2
                                                                 
     s_v      4
                                                                 
     s_v'     3
                                                                 

     Band symmetry, C_2v (mm2)  point group:

     e(  1 -  1) =     -2.31393  eV     1   --> A_1  D_1  S_1  
     e(  2 -  2) =      4.50115  eV     1   --> B_1  D_3  S_3  
     e(  3 -  3) =      5.53770  eV     1   --> A_1  D_1  S_1  
     e(  4 -  4) =      8.66200  eV     1   --> B_2  D_4  S_4  
     e(  5 -  5) =     16.66077  eV     1   --> A_1  D_1  S_1  
     e(  6 -  6) =     20.06406  eV     1   --> A_1  D_1  S_1  
     e(  7 -  7) =     23.52574  eV     1   --> B_1  D_3  S_3  
     e(  8 -  8) =     25.38451  eV     1   --> B_2  D_4  S_4  

 **************************************************************************

 **************************************************************************

                    xk=(  -0.50381,   0.50381,  -0.00000  )

     Band symmetry, C_2v (mm2)  point group:

     e(  1 -  1) =     -2.37699  eV     1   --> A_1  D_1  S_1  
     e(  2 -  2) =      4.76892  eV     1   --> B_1  D_3  S_3  
     e(  3 -  3) =      5.16559  eV     1   --> A_1  D_1  S_1  
     e(  4 -  4) =      8.81077  eV     1   --> B_2  D_4  S_4  
     e(  5 -  5) =     16.97724  eV     1   --> A_1  D_1  S_1  
     e(  6 -  6) =     20.73628  eV     1   --> A_1  D_1  S_1  
     e(  7 -  7) =     23.20053  eV     1   --> B_1  D_3  S_3  
     e(  8 -  8) =     24.93281  eV     1   --> B_2  D_4  S_4  

 **************************************************************************

 **************************************************************************

                    xk=(  -0.47730,   0.47730,   0.00000  )

     Band symmetry, C_2v (mm2)  point group:

     e(  1 -  1) =     -2.48524  eV     1   --> A_1  D_1  S_1  
     e(  2 -  2) =      4.88898  eV     1   --> A_1  D_1  S_1  
     e(  3 -  3) =      5.07017  eV     1   --> B_1  D_3  S_3  
     e(  4 -  4) =      8.97322  eV     1   --> B_2  D_4  S_4  
     e(  5 -  5) =     17.32669  eV     1   --> A_1  D_1  S_1  
     e(  6 -  6) =     21.22075  eV     1   --> A_1  D_1  S_1  
     e(  7 -  7) =     22.86233  eV     1   --> B_1  D_3  S_3  
     e(  8 -  8) =     24.51730  eV     1   --> B_2  D_4  S_4  

 **************************************************************************

 **************************************************************************

                    xk=(  -0.45078,   0.45078,   0.00000  )

     Band symmetry, C_2v (mm2)  point group:

     e(  1 -  1) =     -2.64492  eV     1   --> A_1  D_1  S_1  
     e(  2 -  2) =      4.72089  eV     1   --> A_1  D_1  S_1  
     e(  3 -  3) =      5.40301  eV     1   --> B_1  D_3  S_3  
     e(  4 -  4) =      9.14639  eV     1   --> B_2  D_4  S_4  
     e(  5 -  5) =     17.70548  eV     1   --> A_1  D_1  S_1  
     e(  6 -  6) =     21.47908  eV     1   --> A_1  D_1  S_1  
     e(  7 -  7) =     22.52055  eV     1   --> B_1  D_3  S_3  
     e(  8 -  8) =     24.14713  eV     1   --> B_2  D_4  S_4  

 **************************************************************************

 **************************************************************************

                    xk=(  -0.42426,   0.42426,  -0.00000  )

     Band symmetry, C_2v (mm2)  point group:

     e(  1 -  1) =     -2.85659  eV     1   --> A_1  D_1  S_1  
     e(  2 -  2) =      4.66638  eV     1   --> A_1  D_1  S_1  
     e(  3 -  3) =      5.76510  eV     1   --> B_1  D_3  S_3  
     e(  4 -  4) =      9.32690  eV     1   --> B_2  D_4  S_4  
     e(  5 -  5) =     18.10720  eV     1   --> A_1  D_1  S_1  
     e(  6 -  6) =     21.53500  eV     1   --> A_1  D_1  S_1  
     e(  7 -  7) =     22.18447  eV     1   --> B_1  D_3  S_3  
     e(  8 -  8) =     23.83003  eV     1   --> B_2  D_4  S_4  

 **************************************************************************

 **************************************************************************

                    xk=(  -0.39775,   0.39775,  -0.00000  )

     Band symmetry, C_2v (mm2)  point group:

     e(  1 -  1) =     -3.11476  eV     1   --> A_1  D_1  S_1  
     e(  2 -  2) =      4.72285  eV     1   --> A_1  D_1  S_1  
     e(  3 -  3) =      6.15353  eV     1   --> B_1  D_3  S_3  
     e(  4 -  4) =      9.51101  eV     1   --> B_2  D_4  S_4  
     e(  5 -  5) =     18.52032  eV     1   --> A_1  D_1  S_1  
     e(  6 -  6) =     21.45366  eV     1   --> A_1  D_1  S_1  
     e(  7 -  7) =     21.86315  eV     1   --> B_1  D_3  S_3  
     e(  8 -  8) =     23.57282  eV     1   --> B_2  D_4  S_4  

 **************************************************************************

 **************************************************************************

                    xk=(  -0.37123,   0.37123,  -0.00000  )

     Band symmetry, C_2v (mm2)  point group:

     e(  1 -  1) =     -3.40936  eV     1   --> A_1  D_1  S_1  
     e(  2 -  2) =      4.88199  eV     1   --> A_1  D_1  S_1  
     e(  3 -  3) =      6.56466  eV     1   --> B_1  D_3  S_3  
     e(  4 -  4) =      9.69472  eV     1   --> B_2  D_4  S_4  
     e(  5 -  5) =     18.92203  eV     1   --> A_1  D_1  S_1  
     e(  6 -  6) =     21.31064  eV     1   --> A_1  D_1  S_1  
     e(  7 -  7) =     21.56553  eV     1   --> B_1  D_3  S_3  
     e(  8 -  8) =     23.38167  eV     1   --> B_2  D_4  S_4  

 **************************************************************************

 **************************************************************************

                    xk=(  -0.34471,   0.34471,   0.00000  )

     Band symmetry, C_2v (mm2)  point group:

     e(  1 -  1) =     -3.72819  eV     1   --> A_1  D_1  S_1  
     e(  2 -  2) =      5.13239  eV     1   --> A_1  D_1  S_1  
     e(  3 -  3) =      6.99403  eV     1   --> B_1  D_3  S_3  
     e(  4 -  4) =      9.87397  eV     1   --> B_2  D_4  S_4  
     e(  5 -  5) =     19.26350  eV     1   --> A_1  D_1  S_1  
     e(  6 -  6) =     21.19125  eV     1   --> A_1  D_1  S_1  
     e(  7 -  7) =     21.30044  eV     1   --> B_1  D_3  S_3  
     e(  8 -  8) =     23.26216  eV     1   --> B_2  D_4  S_4  

 **************************************************************************

 **************************************************************************

                    xk=(  -0.31820,   0.31820,  -0.00000  )

     Band symmetry, C_2v (mm2)  point group:

     e(  1 -  1) =     -4.05903  eV     1   --> A_1  D_1  S_1  
     e(  2 -  2) =      5.46181  eV     1   --> A_1  D_1  S_1  
     e(  3 -  3) =      7.43620  eV     1   --> B_1  D_3  S_3  
     e(  4 -  4) =     10.04480  eV     1   --> B_2  D_4  S_4  
     e(  5 -  5) =     19.45504  eV     1   --> A_1  D_1  S_1  
     e(  6 -  6) =     21.07675  eV     1   --> B_1  D_3  S_3  
     e(  7 -  7) =     21.20591  eV     1   --> A_1  D_1  S_1  
     e(  8 -  8) =     23.21919  eV     1   --> B_2  D_4  S_4  

 **************************************************************************

 **************************************************************************

                    xk=(  -0.29168,   0.29168,   0.00000  )

     Band symmetry, C_2v (mm2)  point group:

     e(  1 -  1) =     -4.39097  eV     1   --> A_1  D_1  S_1  
     e(  2 -  2) =      5.85848  eV     1   --> A_1  D_1  S_1  
     e(  3 -  3) =      7.88463  eV     1   --> B_1  D_3  S_3  
     e(  4 -  4) =     10.20364  eV     1   --> B_2  D_4  S_4  
     e(  5 -  5) =     19.42993  eV     1   --> A_1  D_1  S_1  
     e(  6 -  6) =     20.90346  eV     1   --> B_1  D_3  S_3  
     e(  7 -  7) =     21.43024  eV     1   --> A_1  D_1  S_1  
     e(  8 -  8) =     23.25684  eV     1   --> B_2  D_4  S_4  

 **************************************************************************

 **************************************************************************

                    xk=(  -0.26517,   0.26517,   0.00000  )

     Band symmetry, C_2v (mm2)  point group:

     e(  1 -  1) =     -4.71488  eV     1   --> A_1  D_1  S_1  
     e(  2 -  2) =      6.31157  eV     1   --> A_1  D_1  S_1  
     e(  3 -  3) =      8.33161  eV     1   --> B_1  D_3  S_3  
     e(  4 -  4) =     10.34759  eV     1   --> B_2  D_4  S_4  
     e(  5 -  5) =     19.23888  eV     1   --> A_1  D_1  S_1  
     e(  6 -  6) =     20.78969  eV     1   --> B_1  D_3  S_3  
     e(  7 -  7) =     21.81327  eV     1   --> A_1  D_1  S_1  
     e(  8 -  8) =     23.37812  eV     1   --> B_2  D_4  S_4  

 **************************************************************************

 **************************************************************************

                    xk=(  -0.23865,   0.23865,  -0.00000  )

     Band symmetry, C_2v (mm2)  point group:

     e(  1 -  1) =     -5.02341  eV     1   --> A_1  D_1  S_1  
     e(  2 -  2) =      6.81094  eV     1   --> A_1  D_1  S_1  
     e(  3 -  3) =      8.76839  eV     1   --> B_1  D_3  S_3  
     e(  4 -  4) =     10.47460  eV     1   --> B_2  D_4  S_4  
     e(  5 -  5) =     18.96249  eV     1   --> A_1  D_1  S_1  
     e(  6 -  6) =     20.74443  eV     1   --> B_1  D_3  S_3  
     e(  7 -  7) =     22.26538  eV     1   --> A_1  D_1  S_1  
     e(  8 -  8) =     23.58481  eV     1   --> B_2  D_4  S_4  

 **************************************************************************

 **************************************************************************

                    xk=(  -0.21213,   0.21213,   0.00000  )

     Band symmetry, C_2v (mm2)  point group:

     e(  1 -  1) =     -5.31076  eV     1   --> A_1  D_1  S_1  
     e(  2 -  2) =      7.34670  eV     1   --> A_1  D_1  S_1  
     e(  3 -  3) =      9.18543  eV     1   --> B_1  D_3  S_3  
     e(  4 -  4) =     10.58363  eV     1   --> B_2  D_4  S_4  
     e(  5 -  5) =     18.64467  eV     1   --> A_1  D_1  S_1  
     e(  6 -  6) =     20.77610  eV     1   --> B_1  D_3  S_3  
     e(  7 -  7) =     22.72303  eV     1   --> A_1  D_1  S_1  
     e(  8 -  8) =     23.87732  eV     1   --> B_2  D_4  S_4  

 **************************************************************************

 **************************************************************************

                    xk=(  -0.18562,   0.18562,  -0.00000  )

     Band symmetry, C_2v (mm2)  point group:

     e(  1 -  1) =     -5.57242  eV     1   --> A_1  D_1  S_1  
     e(  2 -  2) =      7.90843  eV     1   --> A_1  D_1  S_1  
     e(  3 -  3) =      9.57294  eV     1   --> B_1  D_3  S_3  
     e(  4 -  4) =     10.67461  eV     1   --> B_2  D_4  S_4  
     e(  5 -  5) =     18.30440  eV     1   --> A_1  D_1  S_1  
     e(  6 -  6) =     20.89152  eV     1   --> B_1  D_3  S_3  
     e(  7 -  7) =     23.13261  eV     1   --> A_1  D_1  S_1  
     e(  8 -  8) =     24.25469  eV     1   --> B_2  D_4  S_4  

 **************************************************************************

 **************************************************************************

                    xk=(  -0.15910,   0.15910,   0.00000  )

     Band symmetry, C_2v (mm2)  point group:

     e(  1 -  1) =     -5.80486  eV     1   --> A_1  D_1  S_1  
     e(  2 -  2) =      8.48414  eV     1   --> A_1  D_1  S_1  
     e(  3 -  3) =      9.92176  eV     1   --> B_1  D_3  S_3  
     e(  4 -  4) =     10.74836  eV     1   --> B_2  D_4  S_4  
     e(  5 -  5) =     17.95032  eV     1   --> A_1  D_1  S_1  
     e(  6 -  6) =     21.09438  eV     1   --> B_1  D_3  S_3  
     e(  7 -  7) =     23.43275  eV     1   --> A_1  D_1  S_1  
     e(  8 -  8) =     23.93226  eV     1   --> A_2  D_2  S_2  

 **************************************************************************

 **************************************************************************

                    xk=(  -0.13258,   0.13258,   0.00000  )

     Band symmetry, C_2v (mm2)  point group:

     e(  1 -  1) =     -6.00539  eV     1   --> A_1  D_1  S_1  
     e(  2 -  2) =      9.05887  eV     1   --> A_1  D_1  S_1  
     e(  3 -  3) =     10.22414  eV     1   --> B_1  D_3  S_3  
     e(  4 -  4) =     10.80629  eV     1   --> B_2  D_4  S_4  
     e(  5 -  5) =     17.58845  eV     1   --> A_1  D_1  S_1  
     e(  6 -  6) =     21.38290  eV     1   --> B_1  D_3  S_3  
     e(  7 -  7) =     23.56374  eV     1   --> A_1  D_1  S_1  
     e(  8 -  8) =     23.65722  eV     1   --> A_2  D_2  S_2  

 **************************************************************************

 **************************************************************************

                    xk=(  -0.10607,   0.10607,   0.00000  )

     Band symmetry, C_2v (mm2)  point group:

     e(  1 -  1) =     -6.17193  eV     1   --> A_1  D_1  S_1  
     e(  2 -  2) =      9.61265  eV     1   --> A_1  D_1  S_1  
     e(  3 -  3) =     10.47454  eV     1   --> B_1  D_3  S_3  
     e(  4 -  4) =     10.85021  eV     1   --> B_2  D_4  S_4  
     e(  5 -  5) =     17.22757  eV     1   --> A_1  D_1  S_1  
     e(  6 -  6) =     21.74645  eV     1   --> B_1  D_3  S_3  
     e(  7 -  7) =     23.43205  eV     1   --> A_2  D_2  S_2  
     e(  8 -  8) =     23.51836  eV     1   --> A_1  D_1  S_1  

 **************************************************************************

 **************************************************************************

                    xk=(  -0.07955,   0.07955,  -0.00000  )

     Band symmetry, C_2v (mm2)  point group:

     e(  1 -  1) =     -6.30293  eV     1   --> A_1  D_1  S_1  
     e(  2 -  2) =     10.11773  eV     1   --> A_1  D_1  S_1  
     e(  3 -  3) =     10.66981  eV     1   --> B_1  D_3  S_3  
     e(  4 -  4) =     10.88197  eV     1   --> B_2  D_4  S_4  
     e(  5 -  5) =     16.88436  eV     1   --> A_1  D_1  S_1  
     e(  6 -  6) =     22.15984  eV     1   --> B_1  D_3  S_3  
     e(  7 -  7) =     23.25683  eV     1   --> A_2  D_2  S_2  
     e(  8 -  8) =     23.36635  eV     1   --> A_1  D_1  S_1  

 **************************************************************************

 **************************************************************************

                    xk=(  -0.05303,   0.05303,   0.00000  )

     Band symmetry, C_2v (mm2)  point group:

     e(  1 -  1) =     -6.39726  eV     1   --> A_1  D_1  S_1  
     e(  2 -  2) =     10.53575  eV     1   --> A_1  D_1  S_1  
     e(  3 -  3) =     10.80887  eV     1   --> B_1  D_3  S_3  
     e(  4 -  4) =     10.90329  eV     1   --> B_2  D_4  S_4  
     e(  5 -  5) =     16.58803  eV     1   --> A_1  D_1  S_1  
     e(  6 -  6) =     22.57367  eV     1   --> B_1  D_3  S_3  
     e(  7 -  7) =     23.13164  eV     1   --> A_2  D_2  S_2  
     e(  8 -  8) =     23.19776  eV     1   --> A_1  D_1  S_1  

 **************************************************************************

 **************************************************************************

                    xk=(  -0.02652,   0.02652,  -0.00000  )

     Band symmetry, C_2v (mm2)  point group:

     e(  1 -  1) =     -6.45416  eV     1   --> A_1  D_1  S_1  
     e(  2 -  2) =     10.81847  eV     1   --> A_1  D_1  S_1  
     e(  3 -  3) =     10.89189  eV     1   --> B_1  D_3  S_3  
     e(  4 -  4) =     10.91550  eV     1   --> B_2  D_4  S_4  
     e(  5 -  5) =     16.38057  eV     1   --> A_1  D_1  S_1  
     e(  6 -  6) =     22.90185  eV     1   --> B_1  D_3  S_3  
     e(  7 -  7) =     23.05650  eV     1   --> A_2  D_2  S_2  
     e(  8 -  8) =     23.07541  eV     1   --> A_1  D_1  S_1  

 **************************************************************************

 **************************************************************************

                    xk=(   0.00000,   0.00000,   0.00000  )

     point group O_h (m-3m) 
     there are 10 classes
     the character table:

       E     8C3   3C2   6C4   6C2'  i     8S6   3s_h  6S4   6s_d 
A_1g   1.00  1.00  1.00  1.00  1.00  1.00  1.00  1.00  1.00  1.00
A_2g   1.00  1.00  1.00 -1.00 -1.00  1.00  1.00  1.00 -1.00 -1.00
E_g    2.00 -1.00  2.00  0.00  0.00  2.00 -1.00  2.00  0.00  0.00
T_1g   3.00  0.00 -1.00  1.00 -1.00  3.00  0.00 -1.00  1.00 -1.00
T_2g   3.00  0.00 -1.00 -1.00  1.00  3.00  0.00 -1.00 -1.00  1.00
A_1u   1.00  1.00  1.00  1.00  1.00 -1.00 -1.00 -1.00 -1.00 -1.00
A_2u   1.00  1.00  1.00 -1.00 -1.00 -1.00 -1.00 -1.00  1.00  1.00
E_u    2.00 -1.00  2.00  0.00  0.00 -2.00  1.00 -2.00  0.00  0.00
T_1u   3.00  0.00 -1.00  1.00 -1.00 -3.00  0.00  1.00 -1.00  1.00
T_2u   3.00  0.00 -1.00 -1.00  1.00 -3.00  0.00  1.00  1.00 -1.00

     the symmetry operations in each class and the name of the first element:

     E        1
                                                                 
     8C3     17   19   20   18   24   21   22   23
                                                                 
     3C2      2    4    3
                                                                 
     6C4      7    8   15   16   12   11
                                                                 
     6C2'     5    6   14   13   10    9
                                                                 
     i       25
                                                                 
     8S6     41   43   44   42   48   45   46   47
                                                                 
     3s_h    26   28   27
                                                                 
     6S4     31   32   39   40   36   35
                                                                 
     6s_d    29   30   38   37   34   33
                                                                 

     Band symmetry, O_h (m-3m)  point group:

     e(  1 -  1) =     -6.47318  eV     1   --> A_1g G_1   G_1+
     e(  2 -  4) =     10.91948  eV     3   --> T_1u G_15  G_4-
     e(  5 -  5) =     16.30498  eV     1   --> A_1g G_1   G_1+
     e(  6 -  8) =     23.03145  eV     3   --> T_2g G_25' G_5+

 **************************************************************************

 **************************************************************************

                    xk=(  -0.01768,   0.01768,   0.01768  )

     point group C_3v (3m)  
     there are  3 classes
     the character table:

       E     2C3   3s_v 
A_1    1.00  1.00  1.00
A_2    1.00  1.00 -1.00
E      2.00 -1.00  0.00

     the symmetry operations in each class and the name of the first element:

     E        1
                                                                 
     2C3      2    3
                                                                 
     3s_v     4    5    6
                                                                 

     Band symmetry, C_3v (3m)   point group:

     e(  1 -  1) =     -6.46050  eV     1   --> A_1  L_1       
     e(  2 -  2) =     10.84645  eV     1   --> A_1  L_1       
     e(  3 -  4) =     10.91163  eV     2   --> E    L_3       
     e(  5 -  5) =     16.35568  eV     1   --> A_1  L_1       
     e(  6 -  6) =     22.94810  eV     1   --> A_1  L_1       
     e(  7 -  8) =     23.05236  eV     2   --> E    L_3       

 **************************************************************************

 **************************************************************************

                    xk=(  -0.03536,   0.03536,   0.03536  )

     Band symmetry, C_3v (3m)   point group:

     e(  1 -  1) =     -6.42253  eV     1   --> A_1  L_1       
     e(  2 -  2) =     10.63651  eV     1   --> A_1  L_1       
     e(  3 -  4) =     10.88840  eV     2   --> E    L_3       
     e(  5 -  5) =     16.49764  eV     1   --> A_1  L_1       
     e(  6 -  6) =     22.72794  eV     1   --> A_1  L_1       
     e(  7 -  8) =     23.11303  eV     2   --> E    L_3       

 **************************************************************************

 **************************************************************************

                    xk=(  -0.05303,   0.05303,   0.05303  )

     Band symmetry, C_3v (3m)   point group:

     e(  1 -  1) =     -6.35946  eV     1   --> A_1  L_1       
     e(  2 -  2) =     10.31219  eV     1   --> A_1  L_1       
     e(  3 -  4) =     10.85076  eV     2   --> E    L_3       
     e(  5 -  5) =     16.70518  eV     1   --> A_1  L_1       
     e(  6 -  6) =     22.43517  eV     1   --> A_1  L_1       
     e(  7 -  8) =     23.20686  eV     2   --> E    L_3       

 **************************************************************************

 **************************************************************************

                    xk=(  -0.07071,   0.07071,   0.07071  )

     Band symmetry, C_3v (3m)   point group:

     e(  1 -  1) =     -6.27165  eV     1   --> A_1  L_1       
     e(  2 -  2) =      9.89984  eV     1   --> A_1  L_1       
     e(  3 -  4) =     10.80019  eV     2   --> E    L_3       
     e(  5 -  5) =     16.94618  eV     1   --> A_1  L_1       
     e(  6 -  6) =     22.13143  eV     1   --> A_1  L_1       
     e(  7 -  8) =     23.32118  eV     2   --> E    L_3       

 **************************************************************************

 **************************************************************************

                    xk=(  -0.08839,   0.08839,   0.08839  )

     Band symmetry, C_3v (3m)   point group:

     e(  1 -  1) =     -6.15959  eV     1   --> A_1  L_1       
     e(  2 -  2) =      9.42310  eV     1   --> A_1  L_1       
     e(  3 -  4) =     10.73862  eV     2   --> E    L_3       
     e(  5 -  5) =     17.18805  eV     1   --> A_1  L_1       
     e(  6 -  6) =     21.86400  eV     1   --> A_1  L_1       
     e(  7 -  8) =     23.43475  eV     2   --> E    L_3       

 **************************************************************************

 **************************************************************************

                    xk=(  -0.10607,   0.10607,   0.10607  )

     Band symmetry, C_3v (3m)   point group:

     e(  1 -  1) =     -6.02397  eV     1   --> A_1  L_1       
     e(  2 -  2) =      8.90099  eV     1   --> A_1  L_1       
     e(  3 -  4) =     10.66825  eV     2   --> E    L_3       
     e(  5 -  5) =     17.40033  eV     1   --> A_1  L_1       
     e(  6 -  6) =     21.66820  eV     1   --> A_1  L_1       
     e(  7 -  8) =     23.51631  eV     2   --> E    L_3       

 **************************************************************************

 **************************************************************************

                    xk=(  -0.12374,   0.12374,   0.12374  )

     Band symmetry, C_3v (3m)   point group:

     e(  1 -  1) =     -5.86569  eV     1   --> A_1  L_1       
     e(  2 -  2) =      8.34835  eV     1   --> A_1  L_1       
     e(  3 -  4) =     10.59140  eV     2   --> E    L_3       
     e(  5 -  5) =     17.55744  eV     1   --> A_1  L_1       
     e(  6 -  6) =     21.56917  eV     1   --> A_1  L_1       
     e(  7 -  8) =     23.53100  eV     2   --> E    L_3       

 **************************************************************************

 **************************************************************************

                    xk=(  -0.14142,   0.14142,   0.14142  )

     Band symmetry, C_3v (3m)   point group:

     e(  1 -  1) =     -5.68592  eV     1   --> A_1  L_1       
     e(  2 -  2) =      7.77694  eV     1   --> A_1  L_1       
     e(  3 -  4) =     10.51044  eV     2   --> E    L_3       
     e(  5 -  5) =     17.64421  eV     1   --> A_1  L_1       
     e(  6 -  6) =     21.57887  eV     1   --> A_1  L_1       
     e(  7 -  8) =     23.45998  eV     2   --> E    L_3       

 **************************************************************************

 **************************************************************************

                    xk=(  -0.15910,   0.15910,   0.15910  )

     Band symmetry, C_3v (3m)   point group:

     e(  1 -  1) =     -5.48617  eV     1   --> A_1  L_1       
     e(  2 -  2) =      7.19645  eV     1   --> A_1  L_1       
     e(  3 -  4) =     10.42767  eV     2   --> E    L_3       
     e(  5 -  5) =     17.66077  eV     1   --> A_1  L_1       
     e(  6 -  6) =     21.69232  eV     1   --> A_1  L_1       
     e(  7 -  8) =     23.31440  eV     2   --> E    L_3       

 **************************************************************************

 **************************************************************************

                    xk=(  -0.17678,   0.17678,   0.17678  )

     Band symmetry, C_3v (3m)   point group:

     e(  1 -  1) =     -5.26841  eV     1   --> A_1  L_1       
     e(  2 -  2) =      6.61529  eV     1   --> A_1  L_1       
     e(  3 -  4) =     10.34521  eV     2   --> E    L_3       
     e(  5 -  5) =     17.62078  eV     1   --> A_1  L_1       
     e(  6 -  6) =     21.88975  eV     1   --> A_1  L_1       
     e(  7 -  8) =     23.12284  eV     2   --> E    L_3       

 **************************************************************************

 **************************************************************************

                    xk=(  -0.19445,   0.19445,   0.19445  )

     Band symmetry, C_3v (3m)   point group:

     e(  1 -  1) =     -5.03517  eV     1   --> A_1  L_1       
     e(  2 -  2) =      6.04117  eV     1   --> A_1  L_1       
     e(  3 -  4) =     10.26504  eV     2   --> E    L_3       
     e(  5 -  5) =     17.54363  eV     1   --> A_1  L_1       
     e(  6 -  6) =     22.14465  eV     1   --> A_1  L_1       
     e(  7 -  8) =     22.91229  eV     2   --> E    L_3       

 **************************************************************************

 **************************************************************************

                    xk=(  -0.21213,   0.21213,   0.21213  )

     Band symmetry, C_3v (3m)   point group:

     e(  1 -  1) =     -4.78977  eV     1   --> A_1  L_1       
     e(  2 -  2) =      5.48162  eV     1   --> A_1  L_1       
     e(  3 -  4) =     10.18891  eV     2   --> E    L_3       
     e(  5 -  5) =     17.44725  eV     1   --> A_1  L_1       
     e(  6 -  6) =     22.43102  eV     1   --> A_1  L_1       
     e(  7 -  8) =     22.70147  eV     2   --> E    L_3       

 **************************************************************************

 **************************************************************************

                    xk=(  -0.22981,   0.22981,   0.22981  )

     Band symmetry, C_3v (3m)   point group:

     e(  1 -  1) =     -4.53658  eV     1   --> A_1  L_1       
     e(  2 -  2) =      4.94442  eV     1   --> A_1  L_1       
     e(  3 -  4) =     10.11835  eV     2   --> E    L_3       
     e(  5 -  5) =     17.34523  eV     1   --> A_1  L_1       
     e(  6 -  7) =     22.50209  eV     2   --> E    L_3       
     e(  8 -  8) =     22.72640  eV     1   --> A_1  L_1       

 **************************************************************************

 **************************************************************************

                    xk=(  -0.24749,   0.24749,   0.24749  )

     Band symmetry, C_3v (3m)   point group:

     e(  1 -  1) =     -4.28139  eV     1   --> A_1  L_1       
     e(  2 -  2) =      4.43815  eV     1   --> A_1  L_1       
     e(  3 -  4) =     10.05469  eV     2   --> E    L_3       
     e(  5 -  5) =     17.24680  eV     1   --> A_1  L_1       
     e(  6 -  7) =     22.32133  eV     2   --> E    L_3       
     e(  8 -  8) =     23.01220  eV     1   --> A_1  L_1       

 **************************************************************************

 **************************************************************************

                    xk=(  -0.26517,   0.26517,   0.26517  )

     Band symmetry, C_3v (3m)   point group:

     e(  1 -  1) =     -4.03185  eV     1   --> A_1  L_1       
     e(  2 -  2) =      3.97271  eV     1   --> A_1  L_1       
     e(  3 -  4) =      9.99903  eV     2   --> E    L_3       
     e(  5 -  5) =     17.15785  eV     1   --> A_1  L_1       
     e(  6 -  7) =     22.16367  eV     2   --> E    L_3       
     e(  8 -  8) =     23.27319  eV     1   --> A_1  L_1       

 **************************************************************************

 **************************************************************************

                    xk=(  -0.28284,   0.28284,   0.28284  )

     Band symmetry, C_3v (3m)   point group:

     e(  1 -  1) =     -3.79790  eV     1   --> A_1  L_1       
     e(  2 -  2) =      3.55986  eV     1   --> A_1  L_1       
     e(  3 -  4) =      9.95229  eV     2   --> E    L_3       
     e(  5 -  5) =     17.08204  eV     1   --> A_1  L_1       
     e(  6 -  7) =     22.03195  eV     2   --> E    L_3       
     e(  8 -  8) =     23.49740  eV     1   --> A_1  L_1       

 **************************************************************************

 **************************************************************************

                    xk=(  -0.30052,   0.30052,   0.30052  )

     Band symmetry, C_3v (3m)   point group:

     e(  1 -  1) =     -3.59205  eV     1   --> A_1  L_1       
     e(  2 -  2) =      3.21348  eV     1   --> A_1  L_1       
     e(  3 -  4) =      9.91521  eV     2   --> E    L_3       
     e(  5 -  5) =     17.02157  eV     1   --> A_1  L_1       
     e(  6 -  7) =     21.92803  eV     2   --> E    L_3       
     e(  8 -  8) =     23.67636  eV     1   --> A_1  L_1       

 **************************************************************************

 **************************************************************************

                    xk=(  -0.31820,   0.31820,   0.31820  )

     Band symmetry, C_3v (3m)   point group:

     e(  1 -  1) =     -3.42886  eV     1   --> A_1  L_1       
     e(  2 -  2) =      2.94920  eV     1   --> A_1  L_1       
     e(  3 -  4) =      9.88833  eV     2   --> E    L_3       
     e(  5 -  5) =     16.97771  eV     1   --> A_1  L_1       
     e(  6 -  7) =     21.85307  eV     2   --> E    L_3       
     e(  8 -  8) =     23.80532  eV     1   --> A_1  L_1       

 **************************************************************************

 **************************************************************************

                    xk=(  -0.33588,   0.33588,   0.33588  )

     Band symmetry, C_3v (3m)   point group:

     e(  1 -  1) =     -3.32312  eV     1   --> A_1  L_1       
     e(  2 -  2) =      2.78252  eV     1   --> A_1  L_1       
     e(  3 -  4) =      9.87205  eV     2   --> E    L_3       
     e(  5 -  5) =     16.95116  eV     1   --> A_1  L_1       
     e(  6 -  7) =     21.80783  eV     2   --> E    L_3       
     e(  8 -  8) =     23.88261  eV     1   --> A_1  L_1       

 **************************************************************************

 **************************************************************************

                    xk=(  -0.35355,   0.35355,   0.35355  )

     point group D_3d (-3m) 
     there are  6 classes
     the character table:

       E     2C3   3C2'  i     2S6   3s_d 
A_1g   1.00  1.00  1.00  1.00  1.00  1.00
A_2g   1.00  1.00 -1.00  1.00  1.00 -1.00
E_g    2.00 -1.00  0.00  2.00 -1.00  0.00
A_1u   1.00  1.00  1.00 -1.00 -1.00 -1.00
A_2u   1.00  1.00 -1.00 -1.00 -1.00  1.00
E_u    2.00 -1.00  0.00 -2.00  1.00  0.00

     the symmetry operations in each class and the name of the first element:

     E        1
                                                                 
     2C3      5    6
                                                                 
     3C2'     2    4    3
                                                                 
     i        7
                                                                 
     2S6     11   12
                                                                 
     3s_d     8   10    9
                                                                 

     Band symmetry, D_3d (-3m)  point group:

     e(  1 -  1) =     -3.28639  eV     1   --> A_2u L_2'      
     e(  2 -  2) =      2.72543  eV     1   --> A_1g L_1       
     e(  3 -  4) =      9.86659  eV     2   --> E_g  L_3       
     e(  5 -  5) =     16.94228  eV     1   --> A_2u L_2'      
     e(  6 -  7) =     21.79271  eV     2   --> E_u  L_3'      
     e(  8 -  8) =     23.90829  eV     1   --> A_1g L_1       

 **************************************************************************
 
     BANDS        :      4.10s CPU      4.31s WALL

 
   This run was terminated on:   9:51:26  29Apr2026            

=------------------------------------------------------------------------------=
   JOB DONE.
=------------------------------------------------------------------------------=
