
     Program PWSCF v.7.1 starts on 28Apr2026 at 17: 5:40 

     This program is part of the open-source Quantum ESPRESSO suite
     for quantum simulation of materials; please cite
         "P. Giannozzi et al., J. Phys.:Condens. Matter 21 395502 (2009);
         "P. Giannozzi et al., J. Phys.:Condens. Matter 29 465901 (2017);
         "P. Giannozzi et al., J. Chem. Phys. 152 154105 (2020);
          URL http://www.quantum-espresso.org", 
     in publications or presentations arising from this work. More details at
     http://www.quantum-espresso.org/quote

     Parallel version (MPI & OpenMP), running on      16 processor cores
     Number of MPI processes:                16
     Threads/MPI process:                     1

     MPI processes distributed on     1 nodes
     91592 MiB available memory on the printing compute node when the environment starts
 
     Reading input from AlN_band.in

     Current dimensions of program PWSCF are:
     Max number of different atomic species (ntypx) = 10
     Max number of k-points (npk) = 150000
     Max angular momentum in pseudopotentials (lmaxx) =  4

     Atomic positions and unit cell read from directory:
     ../output/AlN.save/
     Atomic positions from file used, from input discarded
 
     file Al.pbe-n-kjpaw_psl.1.0.0.UPF: wavefunction(s)  3S 3P renormalized
     file N.pbe-n-kjpaw_psl.1.0.0.UPF: wavefunction(s)  2S renormalized
     Message from routine setup:
     using ibrav=0 with symmetry is DISCOURAGED, use correct ibrav instead
 
     K-points division:     npool     =       4
     R & G space division:  proc/nbgrp/npool/nimage =       4
     Subspace diagonalization in iterative solution of the eigenvalue problem:
     a serial algorithm will be used

 
     Parallelization info
     --------------------
     sticks:   dense  smooth     PW     G-vecs:    dense   smooth      PW
     Min         409     409    115                10912    10912    1653
     Max         410     410    116                10915    10915    1655
     Sum        1639    1639    463                43655    43655    6615
 
     Using Slab Decomposition
 


     bravais-lattice index     =            0
     lattice parameter (alat)  =       5.4385  a.u.
     unit-cell volume          =     114.0124 (a.u.)^3
     number of atoms/cell      =            2
     number of atomic types    =            2
     number of electrons       =         8.00
     number of Kohn-Sham states=            8
     kinetic-energy cutoff     =     200.0000  Ry
     charge density cutoff     =     800.0000  Ry
     Exchange-correlation= SLA  PW   PBX  PBC
                           (   1   4   3   4   0   0   0)

     celldm(1)=   5.438489  celldm(2)=   0.000000  celldm(3)=   0.000000
     celldm(4)=   0.000000  celldm(5)=   0.000000  celldm(6)=   0.000000

     crystal axes: (cart. coord. in units of alat)
               a(1) = (  -0.707667   0.000000   0.707667 )  
               a(2) = (  -0.000000   0.707667   0.707667 )  
               a(3) = (  -0.707667   0.707667  -0.000000 )  

     reciprocal axes: (cart. coord. in units 2 pi/alat)
               b(1) = ( -0.706547 -0.706547  0.706547 )  
               b(2) = (  0.706547  0.706547  0.706547 )  
               b(3) = ( -0.706547  0.706547 -0.706547 )  


     PseudoPot. # 1 for Al read from file:
     ../../pseudo/Al.pbe-n-kjpaw_psl.1.0.0.UPF
     MD5 check sum: 502b6b27b9c6270cab5dd1084b96fa6d
     Pseudo is Projector augmented-wave + core cor, Zval =  3.0
     Generated using &quot;atomic&quot; code by A. Dal Corso  v.6.3
     Shape of augmentation charge: PSQ
     Using radial grid of 1135 points,  6 beta functions with: 
                l(1) =   0
                l(2) =   0
                l(3) =   1
                l(4) =   1
                l(5) =   2
                l(6) =   2
     Q(r) pseudized with 0 coefficients 


     PseudoPot. # 2 for N  read from file:
     ../../pseudo/N.pbe-n-kjpaw_psl.1.0.0.UPF
     MD5 check sum: 14c48229446f9f2d411169a3abcbc3fa
     Pseudo is Projector augmented-wave + core cor, Zval =  5.0
     Generated using &quot;atomic&quot; code by A. Dal Corso  v.6.3
     Shape of augmentation charge: PSQ
     Using radial grid of 1085 points,  4 beta functions with: 
                l(1) =   0
                l(2) =   0
                l(3) =   1
                l(4) =   1
     Q(r) pseudized with 0 coefficients 


     atomic species   valence    mass     pseudopotential
        Al             3.00    26.98200     Al( 1.00)
        N              5.00    14.00700     N ( 1.00)

     48 Sym. Ops., with inversion, found



   Cartesian axes

     site n.     atom                  positions (alat units)
         1           Al  tau(   1) = (   0.0000000   0.0000000  -0.0000000  )
         2           N   tau(   2) = (  -0.7076674   0.7076674   0.7076674  )

     number of k points=   101  Gaussian smearing, width (Ry)=  0.0050

     Number of k-points >= 100: set verbosity='high' to print them.

     Dense  grid:    43655 G-vectors     FFT dimensions: (  50,  50,  50)

     Estimated max dynamical RAM per process >      17.18 MB

     Estimated total dynamical RAM >     274.82 MB

     The potential is recalculated from file :
     ../output/AlN.save/charge-density

     Starting wfcs are    8 randomized atomic wfcs
     Checking if some PAW data can be deallocated... 

     Band Structure Calculation
     Davidson diagonalization with overlap

     ethr =  1.25E-10,  avg # of iterations = 26.5

     total cpu time spent up to now is        5.9 secs

     End of band structure calculation

     Number of k-points >= 100: set verbosity='high' to print the bands.

     Writing all to output data dir ../output/AlN.save/
 
     init_run     :      0.31s CPU      0.55s WALL (       1 calls)
     electrons    :      3.79s CPU      4.03s WALL (       1 calls)

     Called by init_run:
     wfcinit      :      0.00s CPU      0.05s WALL (       1 calls)
     potinit      :      0.06s CPU      0.15s WALL (       1 calls)
     hinit0       :      0.14s CPU      0.23s WALL (       1 calls)

     Called by electrons:
     c_bands      :      3.79s CPU      4.03s WALL (       1 calls)
     v_of_rho     :      0.01s CPU      0.01s WALL (       1 calls)
     newd         :      0.01s CPU      0.01s WALL (       1 calls)
     PAW_pot      :      0.04s CPU      0.04s WALL (       1 calls)

     Called by c_bands:
     init_us_2    :      0.01s CPU      0.01s WALL (      26 calls)
     init_us_2:cp :      0.01s CPU      0.01s WALL (      26 calls)
     cegterg      :      2.92s CPU      2.99s WALL (      46 calls)

     Called by *egterg:
     cdiaghg      :      0.10s CPU      0.10s WALL (     724 calls)
     h_psi        :      2.56s CPU      2.62s WALL (     770 calls)
     s_psi        :      0.05s CPU      0.05s WALL (     770 calls)
     g_psi        :      0.03s CPU      0.03s WALL (     698 calls)

     Called by h_psi:
     h_psi:calbec :      0.09s CPU      0.09s WALL (     770 calls)
     vloc_psi     :      2.40s CPU      2.45s WALL (     770 calls)
     add_vuspsi   :      0.05s CPU      0.05s WALL (     770 calls)

     General routines
     calbec       :      0.09s CPU      0.09s WALL (     770 calls)
     fft          :      0.01s CPU      0.10s WALL (      12 calls)
     fftw         :      2.09s CPU      2.14s WALL (    8720 calls)
     davcio       :      0.00s CPU      0.16s WALL (      52 calls)
 
     Parallel routines
 
     PWSCF        :      5.08s CPU      6.09s WALL

 
   This run was terminated on:  17: 5:46  28Apr2026            

=------------------------------------------------------------------------------=
   JOB DONE.
=------------------------------------------------------------------------------=
