
     Program PWSCF v.7.1 starts on 27Apr2026 at 15:53:32 

     This program is part of the open-source Quantum ESPRESSO suite
     for quantum simulation of materials; please cite
         "P. Giannozzi et al., J. Phys.:Condens. Matter 21 395502 (2009);
         "P. Giannozzi et al., J. Phys.:Condens. Matter 29 465901 (2017);
         "P. Giannozzi et al., J. Chem. Phys. 152 154105 (2020);
          URL http://www.quantum-espresso.org", 
     in publications or presentations arising from this work. More details at
     http://www.quantum-espresso.org/quote

     Parallel version (MPI & OpenMP), running on       4 processor cores
     Number of MPI processes:                 4
     Threads/MPI process:                     1

     MPI processes distributed on     1 nodes
     92089 MiB available memory on the printing compute node when the environment starts
 
     Reading input from AlN_scf.in

     Current dimensions of program PWSCF are:
     Max number of different atomic species (ntypx) = 10
     Max number of k-points (npk) = 150000
     Max angular momentum in pseudopotentials (lmaxx) =  4
     file Al.pbe-n-kjpaw_psl.1.0.0.UPF: wavefunction(s)  3S 3P renormalized
     file N.pbe-n-kjpaw_psl.1.0.0.UPF: wavefunction(s)  2S renormalized
     Message from routine setup:
     using ibrav=0 with symmetry is DISCOURAGED, use correct ibrav instead
 
     K-points division:     npool     =       2
     R & G space division:  proc/nbgrp/npool/nimage =       2
     Subspace diagonalization in iterative solution of the eigenvalue problem:
     a serial algorithm will be used

 
     Parallelization info
     --------------------
     sticks:   dense  smooth     PW     G-vecs:    dense   smooth      PW
     Min         156     156     54                 1917     1917     373
     Max         157     157     55                 1922     1922     376
     Sum         313     313    109                 3839     3839     749
 
     Using Slab Decomposition
 


     bravais-lattice index     =            0
     lattice parameter (alat)  =       5.4385  a.u.
     unit-cell volume          =     113.7417 (a.u.)^3
     number of atoms/cell      =            2
     number of atomic types    =            2
     number of electrons       =         8.00
     number of Kohn-Sham states=            4
     kinetic-energy cutoff     =      40.0000  Ry
     charge density cutoff     =     160.0000  Ry
     scf convergence threshold =      1.0E-08
     mixing beta               =       0.2000
     number of iterations used =            8  local-TF  mixing
     Exchange-correlation= SLA  PW   PBX  PBC
                           (   1   4   3   4   0   0   0)

     celldm(1)=   5.438489  celldm(2)=   0.000000  celldm(3)=   0.000000
     celldm(4)=   0.000000  celldm(5)=   0.000000  celldm(6)=   0.000000

     crystal axes: (cart. coord. in units of alat)
               a(1) = (  -0.707107   0.000000   0.707107 )  
               a(2) = (   0.000000   0.707107   0.707107 )  
               a(3) = (  -0.707107   0.707107   0.000000 )  

     reciprocal axes: (cart. coord. in units 2 pi/alat)
               b(1) = ( -0.707107 -0.707107  0.707107 )  
               b(2) = (  0.707107  0.707107  0.707107 )  
               b(3) = ( -0.707107  0.707107 -0.707107 )  


     PseudoPot. # 1 for Al read from file:
     ../../pseudo/Al.pbe-n-kjpaw_psl.1.0.0.UPF
     MD5 check sum: 502b6b27b9c6270cab5dd1084b96fa6d
     Pseudo is Projector augmented-wave + core cor, Zval =  3.0
     Generated using &quot;atomic&quot; code by A. Dal Corso  v.6.3
     Shape of augmentation charge: PSQ
     Using radial grid of 1135 points,  6 beta functions with: 
                l(1) =   0
                l(2) =   0
                l(3) =   1
                l(4) =   1
                l(5) =   2
                l(6) =   2
     Q(r) pseudized with 0 coefficients 


     PseudoPot. # 2 for N  read from file:
     ../../pseudo/N.pbe-n-kjpaw_psl.1.0.0.UPF
     MD5 check sum: 14c48229446f9f2d411169a3abcbc3fa
     Pseudo is Projector augmented-wave + core cor, Zval =  5.0
     Generated using &quot;atomic&quot; code by A. Dal Corso  v.6.3
     Shape of augmentation charge: PSQ
     Using radial grid of 1085 points,  4 beta functions with: 
                l(1) =   0
                l(2) =   0
                l(3) =   1
                l(4) =   1
     Q(r) pseudized with 0 coefficients 


     atomic species   valence    mass     pseudopotential
        Al             3.00    26.98200     Al( 1.00)
        N              5.00    14.00700     N ( 1.00)

     48 Sym. Ops., with inversion, found



   Cartesian axes

     site n.     atom                  positions (alat units)
         1           Al  tau(   1) = (   0.0000000   0.0000000   0.0000000  )
         2           N   tau(   2) = (  -0.7071068   0.7071068   0.7071068  )

     number of k points=   145

     Number of k-points >= 100: set verbosity='high' to print them.

     Dense  grid:     3839 G-vectors     FFT dimensions: (  24,  24,  24)

     Estimated max dynamical RAM per process >       7.51 MB

     Estimated total dynamical RAM >      29.11 MB

     Check: negative core charge=   -0.000013

     Initial potential from superposition of free atoms

     starting charge       7.9977, renormalised to       8.0000
     Starting wfcs are    8 randomized atomic wfcs
     Checking if some PAW data can be deallocated... 

     total cpu time spent up to now is        0.4 secs

     Self-consistent Calculation

     iteration #  1     ecut=    40.00 Ry     beta= 0.20
     Davidson diagonalization with overlap
     ethr =  1.00E-02,  avg # of iterations =  1.9

     total cpu time spent up to now is        0.6 secs

     total energy              =     -67.95510663 Ry
     estimated scf accuracy    <       0.43782522 Ry

     iteration #  2     ecut=    40.00 Ry     beta= 0.20
     Davidson diagonalization with overlap
     ethr =  5.47E-03,  avg # of iterations =  1.0

     total cpu time spent up to now is        0.7 secs

     total energy              =     -67.83315077 Ry
     estimated scf accuracy    <       0.25953623 Ry

     iteration #  3     ecut=    40.00 Ry     beta= 0.20
     Davidson diagonalization with overlap
     ethr =  3.24E-03,  avg # of iterations =  2.0

     total cpu time spent up to now is        0.9 secs

     total energy              =     -67.89933278 Ry
     estimated scf accuracy    <       0.00772021 Ry

     iteration #  4     ecut=    40.00 Ry     beta= 0.20
     Davidson diagonalization with overlap
     ethr =  9.65E-05,  avg # of iterations =  2.4

     total cpu time spent up to now is        1.1 secs

     total energy              =     -67.90149848 Ry
     estimated scf accuracy    <       0.00642605 Ry

     iteration #  5     ecut=    40.00 Ry     beta= 0.20
     Davidson diagonalization with overlap
     ethr =  8.03E-05,  avg # of iterations =  1.4

     total cpu time spent up to now is        1.3 secs

     total energy              =     -67.90133825 Ry
     estimated scf accuracy    <       0.00190329 Ry

     iteration #  6     ecut=    40.00 Ry     beta= 0.20
     Davidson diagonalization with overlap
     ethr =  2.38E-05,  avg # of iterations =  2.0

     total cpu time spent up to now is        1.5 secs

     total energy              =     -67.90106171 Ry
     estimated scf accuracy    <       0.00053607 Ry

     iteration #  7     ecut=    40.00 Ry     beta= 0.20
     Davidson diagonalization with overlap
     ethr =  6.70E-06,  avg # of iterations =  3.4

     total cpu time spent up to now is        1.7 secs

     total energy              =     -67.90122599 Ry
     estimated scf accuracy    <       0.00068929 Ry

     iteration #  8     ecut=    40.00 Ry     beta= 0.20
     Davidson diagonalization with overlap
     ethr =  6.70E-06,  avg # of iterations =  2.0

     total cpu time spent up to now is        1.9 secs

     total energy              =     -67.90141301 Ry
     estimated scf accuracy    <       0.00002369 Ry

     iteration #  9     ecut=    40.00 Ry     beta= 0.20
     Davidson diagonalization with overlap
     ethr =  2.96E-07,  avg # of iterations =  2.7

     total cpu time spent up to now is        2.1 secs

     total energy              =     -67.90141857 Ry
     estimated scf accuracy    <       0.00000353 Ry

     iteration # 10     ecut=    40.00 Ry     beta= 0.20
     Davidson diagonalization with overlap
     ethr =  4.41E-08,  avg # of iterations =  1.7

     total cpu time spent up to now is        2.3 secs

     total energy              =     -67.90141890 Ry
     estimated scf accuracy    <       0.00000474 Ry

     iteration # 11     ecut=    40.00 Ry     beta= 0.20
     Davidson diagonalization with overlap
     ethr =  4.41E-08,  avg # of iterations =  1.0

     total cpu time spent up to now is        2.5 secs

     total energy              =     -67.90141727 Ry
     estimated scf accuracy    <       0.00000472 Ry

     iteration # 12     ecut=    40.00 Ry     beta= 0.20
     Davidson diagonalization with overlap
     ethr =  4.41E-08,  avg # of iterations =  1.9

     total cpu time spent up to now is        2.7 secs

     total energy              =     -67.90141756 Ry
     estimated scf accuracy    <       0.00000086 Ry

     iteration # 13     ecut=    40.00 Ry     beta= 0.20
     Davidson diagonalization with overlap
     ethr =  1.08E-08,  avg # of iterations =  1.0

     total cpu time spent up to now is        2.8 secs

     total energy              =     -67.90141728 Ry
     estimated scf accuracy    <       0.00000067 Ry

     iteration # 14     ecut=    40.00 Ry     beta= 0.20
     Davidson diagonalization with overlap
     ethr =  8.34E-09,  avg # of iterations =  2.0

     total cpu time spent up to now is        3.0 secs

     total energy              =     -67.90141740 Ry
     estimated scf accuracy    <       0.00000001 Ry

     iteration # 15     ecut=    40.00 Ry     beta= 0.20
     Davidson diagonalization with overlap
     ethr =  1.55E-10,  avg # of iterations =  4.3

     total cpu time spent up to now is        3.3 secs

     total energy              =     -67.90141749 Ry
     estimated scf accuracy    <       0.00000017 Ry

     iteration # 16     ecut=    40.00 Ry     beta= 0.20
     Davidson diagonalization with overlap
     ethr =  1.55E-10,  avg # of iterations =  2.0

     total cpu time spent up to now is        3.4 secs

     total energy              =     -67.90141734 Ry
     estimated scf accuracy    <       0.00000025 Ry

     iteration # 17     ecut=    40.00 Ry     beta= 0.20
     Davidson diagonalization with overlap
     ethr =  1.55E-10,  avg # of iterations =  4.0

     total cpu time spent up to now is        3.7 secs

     End of self-consistent calculation

     Number of k-points >= 100: set verbosity='high' to print the bands.

     highest occupied level (ev):    10.9176

!    total energy              =     -67.90141741 Ry
     total all-electron energy =      -595.342996 Ry
     estimated scf accuracy    <          9.4E-09 Ry

     The total energy is the sum of the following terms:
     one-electron contribution =       3.33299728 Ry
     hartree contribution      =       4.55847354 Ry
     xc contribution           =      -8.64027149 Ry
     ewald contribution        =     -24.51862772 Ry
     one-center paw contrib.   =     -42.63398901 Ry

     convergence has been achieved in  17 iterations

     Forces acting on atoms (cartesian axes, Ry/au):

     atom    1 type  1   force =     0.00000000    0.00000000    0.00000000
     atom    2 type  2   force =    -0.00000000    0.00000000   -0.00000000

     Total force =     0.000000     Total SCF correction =     0.000000


     Computing stress (Cartesian axis) and pressure

          total   stress  (Ry/bohr**3)                   (kbar)     P=       -8.80
  -0.00005980   0.00000000  -0.00000000           -8.80        0.00       -0.00
   0.00000000  -0.00005980  -0.00000000            0.00       -8.80       -0.00
  -0.00000000  -0.00000000  -0.00005980           -0.00       -0.00       -8.80


     Writing all to output data dir ../output/AlN.save/
 
     init_run     :      0.22s CPU      0.24s WALL (       1 calls)
     electrons    :      3.13s CPU      3.30s WALL (       1 calls)
     forces       :      0.02s CPU      0.02s WALL (       1 calls)
     stress       :      0.08s CPU      0.08s WALL (       1 calls)

     Called by init_run:
     wfcinit      :      0.07s CPU      0.07s WALL (       1 calls)
     potinit      :      0.06s CPU      0.07s WALL (       1 calls)
     hinit0       :      0.09s CPU      0.09s WALL (       1 calls)

     Called by electrons:
     c_bands      :      1.89s CPU      2.02s WALL (      17 calls)
     sum_band     :      0.35s CPU      0.36s WALL (      17 calls)
     v_of_rho     :      0.03s CPU      0.04s WALL (      18 calls)
     newd         :      0.04s CPU      0.04s WALL (      18 calls)
     PAW_pot      :      0.84s CPU      0.85s WALL (      18 calls)
     mix_rho      :      0.03s CPU      0.03s WALL (      17 calls)

     Called by c_bands:
     init_us_2    :      0.11s CPU      0.12s WALL (    2701 calls)
     init_us_2:cp :      0.11s CPU      0.11s WALL (    2701 calls)
     cegterg      :      1.51s CPU      1.61s WALL (    1241 calls)

     Called by *egterg:
     cdiaghg      :      0.11s CPU      0.12s WALL (    3890 calls)
     h_psi        :      1.23s CPU      1.31s WALL (    3963 calls)
     s_psi        :      0.03s CPU      0.03s WALL (    3963 calls)
     g_psi        :      0.01s CPU      0.01s WALL (    2649 calls)

     Called by h_psi:
     h_psi:calbec :      0.06s CPU      0.06s WALL (    3963 calls)
     vloc_psi     :      1.11s CPU      1.18s WALL (    3963 calls)
     add_vuspsi   :      0.03s CPU      0.04s WALL (    3963 calls)

     General routines
     calbec       :      0.08s CPU      0.08s WALL (    5569 calls)
     fft          :      0.02s CPU      0.03s WALL (     223 calls)
     ffts         :      0.01s CPU      0.01s WALL (     291 calls)
     fftw         :      1.13s CPU      1.20s WALL (   33626 calls)
 
     Parallel routines
 
     PWSCF        :      3.65s CPU      4.20s WALL

 
   This run was terminated on:  15:53:36  27Apr2026            

=------------------------------------------------------------------------------=
   JOB DONE.
=------------------------------------------------------------------------------=
