
     Program PWSCF v.7.1 starts on 27Apr2026 at 15:44:25 

     This program is part of the open-source Quantum ESPRESSO suite
     for quantum simulation of materials; please cite
         "P. Giannozzi et al., J. Phys.:Condens. Matter 21 395502 (2009);
         "P. Giannozzi et al., J. Phys.:Condens. Matter 29 465901 (2017);
         "P. Giannozzi et al., J. Chem. Phys. 152 154105 (2020);
          URL http://www.quantum-espresso.org", 
     in publications or presentations arising from this work. More details at
     http://www.quantum-espresso.org/quote

     Parallel version (MPI & OpenMP), running on       4 processor cores
     Number of MPI processes:                 4
     Threads/MPI process:                     1

     MPI processes distributed on     1 nodes
     90520 MiB available memory on the printing compute node when the environment starts
 
     Reading input from AlN_scf.in

     Current dimensions of program PWSCF are:
     Max number of different atomic species (ntypx) = 10
     Max number of k-points (npk) = 150000
     Max angular momentum in pseudopotentials (lmaxx) =  4
     file Al.pbe-n-kjpaw_psl.1.0.0.UPF: wavefunction(s)  3S 3P renormalized
     file N.pbe-n-kjpaw_psl.1.0.0.UPF: wavefunction(s)  2S renormalized
     Message from routine setup:
     using ibrav=0 with symmetry is DISCOURAGED, use correct ibrav instead
 
     K-points division:     npool     =       2
     R & G space division:  proc/nbgrp/npool/nimage =       2
     Subspace diagonalization in iterative solution of the eigenvalue problem:
     a serial algorithm will be used

 
     Parallelization info
     --------------------
     sticks:   dense  smooth     PW     G-vecs:    dense   smooth      PW
     Min         819     819    237                21799    21799    3426
     Max         820     820    238                21800    21800    3429
     Sum        1639    1639    475                43599    43599    6855
 
     Using Slab Decomposition
 


     bravais-lattice index     =            0
     lattice parameter (alat)  =       5.4385  a.u.
     unit-cell volume          =     113.7417 (a.u.)^3
     number of atoms/cell      =            2
     number of atomic types    =            2
     number of electrons       =         8.00
     number of Kohn-Sham states=            4
     kinetic-energy cutoff     =     200.0000  Ry
     charge density cutoff     =     800.0000  Ry
     scf convergence threshold =      1.0E-08
     mixing beta               =       0.2000
     number of iterations used =            8  local-TF  mixing
     Exchange-correlation= SLA  PW   PBX  PBC
                           (   1   4   3   4   0   0   0)

     celldm(1)=   5.438489  celldm(2)=   0.000000  celldm(3)=   0.000000
     celldm(4)=   0.000000  celldm(5)=   0.000000  celldm(6)=   0.000000

     crystal axes: (cart. coord. in units of alat)
               a(1) = (  -0.707107   0.000000   0.707107 )  
               a(2) = (   0.000000   0.707107   0.707107 )  
               a(3) = (  -0.707107   0.707107   0.000000 )  

     reciprocal axes: (cart. coord. in units 2 pi/alat)
               b(1) = ( -0.707107 -0.707107  0.707107 )  
               b(2) = (  0.707107  0.707107  0.707107 )  
               b(3) = ( -0.707107  0.707107 -0.707107 )  


     PseudoPot. # 1 for Al read from file:
     ../../pseudo/Al.pbe-n-kjpaw_psl.1.0.0.UPF
     MD5 check sum: 502b6b27b9c6270cab5dd1084b96fa6d
     Pseudo is Projector augmented-wave + core cor, Zval =  3.0
     Generated using &quot;atomic&quot; code by A. Dal Corso  v.6.3
     Shape of augmentation charge: PSQ
     Using radial grid of 1135 points,  6 beta functions with: 
                l(1) =   0
                l(2) =   0
                l(3) =   1
                l(4) =   1
                l(5) =   2
                l(6) =   2
     Q(r) pseudized with 0 coefficients 


     PseudoPot. # 2 for N  read from file:
     ../../pseudo/N.pbe-n-kjpaw_psl.1.0.0.UPF
     MD5 check sum: 14c48229446f9f2d411169a3abcbc3fa
     Pseudo is Projector augmented-wave + core cor, Zval =  5.0
     Generated using &quot;atomic&quot; code by A. Dal Corso  v.6.3
     Shape of augmentation charge: PSQ
     Using radial grid of 1085 points,  4 beta functions with: 
                l(1) =   0
                l(2) =   0
                l(3) =   1
                l(4) =   1
     Q(r) pseudized with 0 coefficients 


     atomic species   valence    mass     pseudopotential
        Al             3.00    26.98200     Al( 1.00)
        N              5.00    14.00700     N ( 1.00)

     48 Sym. Ops., with inversion, found



   Cartesian axes

     site n.     atom                  positions (alat units)
         1           Al  tau(   1) = (   0.0000000   0.0000000   0.0000000  )
         2           N   tau(   2) = (  -0.7071068   0.7071068   0.7071068  )

     number of k points=   145

     Number of k-points >= 100: set verbosity='high' to print them.

     Dense  grid:    43599 G-vectors     FFT dimensions: (  50,  50,  50)

     Estimated max dynamical RAM per process >      65.42 MB

     Estimated total dynamical RAM >     251.02 MB

     Initial potential from superposition of free atoms

     starting charge       7.9977, renormalised to       8.0000
     Starting wfcs are    8 randomized atomic wfcs
     Checking if some PAW data can be deallocated... 

     total cpu time spent up to now is        1.2 secs

     Self-consistent Calculation

     iteration #  1     ecut=   200.00 Ry     beta= 0.20
     Davidson diagonalization with overlap
     ethr =  1.00E-02,  avg # of iterations =  1.9

     total cpu time spent up to now is        2.5 secs

     total energy              =     -67.95661277 Ry
     estimated scf accuracy    <       0.44310188 Ry

     iteration #  2     ecut=   200.00 Ry     beta= 0.20
     Davidson diagonalization with overlap
     ethr =  5.54E-03,  avg # of iterations =  1.0

     total cpu time spent up to now is        3.6 secs

     total energy              =     -67.83426517 Ry
     estimated scf accuracy    <       0.26188043 Ry

     iteration #  3     ecut=   200.00 Ry     beta= 0.20
     Davidson diagonalization with overlap
     ethr =  3.27E-03,  avg # of iterations =  2.0

     total cpu time spent up to now is        5.0 secs

     total energy              =     -67.90137593 Ry
     estimated scf accuracy    <       0.00761411 Ry

     iteration #  4     ecut=   200.00 Ry     beta= 0.20
     Davidson diagonalization with overlap
     ethr =  9.52E-05,  avg # of iterations =  2.5

     total cpu time spent up to now is        6.5 secs

     total energy              =     -67.90346260 Ry
     estimated scf accuracy    <       0.00597317 Ry

     iteration #  5     ecut=   200.00 Ry     beta= 0.20
     Davidson diagonalization with overlap
     ethr =  7.47E-05,  avg # of iterations =  1.3

     total cpu time spent up to now is        7.6 secs

     total energy              =     -67.90327058 Ry
     estimated scf accuracy    <       0.00183108 Ry

     iteration #  6     ecut=   200.00 Ry     beta= 0.20
     Davidson diagonalization with overlap
     ethr =  2.29E-05,  avg # of iterations =  2.2

     total cpu time spent up to now is        8.9 secs

     total energy              =     -67.90312565 Ry
     estimated scf accuracy    <       0.00045358 Ry

     iteration #  7     ecut=   200.00 Ry     beta= 0.20
     Davidson diagonalization with overlap
     ethr =  5.67E-06,  avg # of iterations =  3.2

     total cpu time spent up to now is       10.5 secs

     total energy              =     -67.90331586 Ry
     estimated scf accuracy    <       0.00023047 Ry

     iteration #  8     ecut=   200.00 Ry     beta= 0.20
     Davidson diagonalization with overlap
     ethr =  2.88E-06,  avg # of iterations =  2.0

     total cpu time spent up to now is       11.9 secs

     total energy              =     -67.90338863 Ry
     estimated scf accuracy    <       0.00004316 Ry

     iteration #  9     ecut=   200.00 Ry     beta= 0.20
     Davidson diagonalization with overlap
     ethr =  5.40E-07,  avg # of iterations =  2.0

     total cpu time spent up to now is       13.3 secs

     total energy              =     -67.90339517 Ry
     estimated scf accuracy    <       0.00000165 Ry

     iteration # 10     ecut=   200.00 Ry     beta= 0.20
     Davidson diagonalization with overlap
     ethr =  2.07E-08,  avg # of iterations =  1.8

     total cpu time spent up to now is       14.5 secs

     total energy              =     -67.90339529 Ry
     estimated scf accuracy    <       0.00000321 Ry

     iteration # 11     ecut=   200.00 Ry     beta= 0.20
     Davidson diagonalization with overlap
     ethr =  2.07E-08,  avg # of iterations =  1.0

     total cpu time spent up to now is       15.6 secs

     total energy              =     -67.90339521 Ry
     estimated scf accuracy    <       0.00000301 Ry

     iteration # 12     ecut=   200.00 Ry     beta= 0.20
     Davidson diagonalization with overlap
     ethr =  2.07E-08,  avg # of iterations =  1.0

     total cpu time spent up to now is       16.7 secs

     total energy              =     -67.90339505 Ry
     estimated scf accuracy    <       0.00000276 Ry

     iteration # 13     ecut=   200.00 Ry     beta= 0.20
     Davidson diagonalization with overlap
     ethr =  2.07E-08,  avg # of iterations =  1.0

     total cpu time spent up to now is       17.8 secs

     total energy              =     -67.90339407 Ry
     estimated scf accuracy    <       0.00000226 Ry

     iteration # 14     ecut=   200.00 Ry     beta= 0.20
     Davidson diagonalization with overlap
     ethr =  2.07E-08,  avg # of iterations =  2.0

     total cpu time spent up to now is       19.3 secs

     total energy              =     -67.90339431 Ry
     estimated scf accuracy    <       0.00000014 Ry

     iteration # 15     ecut=   200.00 Ry     beta= 0.20
     Davidson diagonalization with overlap
     ethr =  1.78E-09,  avg # of iterations =  2.7

     total cpu time spent up to now is       20.8 secs

     End of self-consistent calculation

     Number of k-points >= 100: set verbosity='high' to print the bands.

     highest occupied level (ev):    10.9190

!    total energy              =     -67.90339436 Ry
     total all-electron energy =      -595.344973 Ry
     estimated scf accuracy    <          3.3E-10 Ry

     The total energy is the sum of the following terms:
     one-electron contribution =       3.32987704 Ry
     hartree contribution      =       4.56012256 Ry
     xc contribution           =      -8.64064623 Ry
     ewald contribution        =     -24.51862769 Ry
     one-center paw contrib.   =     -42.63412004 Ry

     convergence has been achieved in  15 iterations

     Forces acting on atoms (cartesian axes, Ry/au):

     atom    1 type  1   force =    -0.00000000    0.00000000   -0.00000000
     atom    2 type  2   force =     0.00000000   -0.00000000    0.00000000

     Total force =     0.000000     Total SCF correction =     0.000000


     Computing stress (Cartesian axis) and pressure

          total   stress  (Ry/bohr**3)                   (kbar)     P=        6.04
   0.00004106  -0.00000000  -0.00000000            6.04       -0.00       -0.00
  -0.00000000   0.00004106   0.00000000           -0.00        6.04        0.00
  -0.00000000   0.00000000   0.00004106           -0.00        0.00        6.04


     Writing all to output data dir ../output/AlN.save/
 
     init_run     :      0.98s CPU      1.03s WALL (       1 calls)
     electrons    :     19.05s CPU     19.62s WALL (       1 calls)
     forces       :      0.25s CPU      0.26s WALL (       1 calls)
     stress       :      0.88s CPU      0.90s WALL (       1 calls)

     Called by init_run:
     wfcinit      :      0.65s CPU      0.66s WALL (       1 calls)
     potinit      :      0.09s CPU      0.09s WALL (       1 calls)
     hinit0       :      0.19s CPU      0.19s WALL (       1 calls)

     Called by electrons:
     c_bands      :     14.19s CPU     14.43s WALL (      15 calls)
     sum_band     :      3.14s CPU      3.30s WALL (      15 calls)
     v_of_rho     :      0.30s CPU      0.31s WALL (      16 calls)
     newd         :      0.37s CPU      0.51s WALL (      16 calls)
     PAW_pot      :      0.77s CPU      0.78s WALL (      16 calls)
     mix_rho      :      0.34s CPU      0.37s WALL (      15 calls)

     Called by c_bands:
     init_us_2    :      1.23s CPU      1.26s WALL (    2409 calls)
     init_us_2:cp :      1.22s CPU      1.26s WALL (    2409 calls)
     cegterg      :     10.64s CPU     10.82s WALL (    1095 calls)

     Called by *egterg:
     cdiaghg      :      0.12s CPU      0.12s WALL (    3072 calls)
     h_psi        :     10.10s CPU     10.26s WALL (    3145 calls)
     s_psi        :      0.25s CPU      0.26s WALL (    3145 calls)
     g_psi        :      0.07s CPU      0.07s WALL (    1977 calls)

     Called by h_psi:
     h_psi:calbec :      0.33s CPU      0.34s WALL (    3145 calls)
     vloc_psi     :      9.45s CPU      9.59s WALL (    3145 calls)
     add_vuspsi   :      0.25s CPU      0.26s WALL (    3145 calls)

     General routines
     calbec       :      0.49s CPU      0.50s WALL (    4605 calls)
     fft          :      0.13s CPU      0.13s WALL (     201 calls)
     ffts         :      0.19s CPU      0.19s WALL (     275 calls)
     fftw         :      9.65s CPU      9.79s WALL (   28066 calls)
 
     Parallel routines
 
     PWSCF        :     21.33s CPU     22.22s WALL

 
   This run was terminated on:  15:44:47  27Apr2026            

=------------------------------------------------------------------------------=
   JOB DONE.
=------------------------------------------------------------------------------=
