
     Program PWSCF v.7.1 starts on 27Apr2026 at 15:50:59 

     This program is part of the open-source Quantum ESPRESSO suite
     for quantum simulation of materials; please cite
         "P. Giannozzi et al., J. Phys.:Condens. Matter 21 395502 (2009);
         "P. Giannozzi et al., J. Phys.:Condens. Matter 29 465901 (2017);
         "P. Giannozzi et al., J. Chem. Phys. 152 154105 (2020);
          URL http://www.quantum-espresso.org", 
     in publications or presentations arising from this work. More details at
     http://www.quantum-espresso.org/quote

     Parallel version (MPI & OpenMP), running on       4 processor cores
     Number of MPI processes:                 4
     Threads/MPI process:                     1

     MPI processes distributed on     1 nodes
     90310 MiB available memory on the printing compute node when the environment starts
 
     Reading input from AlN_scf.in

     Current dimensions of program PWSCF are:
     Max number of different atomic species (ntypx) = 10
     Max number of k-points (npk) = 150000
     Max angular momentum in pseudopotentials (lmaxx) =  4
     file Al.pbe-n-kjpaw_psl.1.0.0.UPF: wavefunction(s)  3S 3P renormalized
     file N.pbe-n-kjpaw_psl.1.0.0.UPF: wavefunction(s)  2S renormalized
     Message from routine setup:
     using ibrav=0 with symmetry is DISCOURAGED, use correct ibrav instead
 
     K-points division:     npool     =       2
     R & G space division:  proc/nbgrp/npool/nimage =       2
     Subspace diagonalization in iterative solution of the eigenvalue problem:
     a serial algorithm will be used

 
     Parallelization info
     --------------------
     sticks:   dense  smooth     PW     G-vecs:    dense   smooth      PW
     Min         483     483    150                10053    10053    1691
     Max         484     484    151                10054    10054    1692
     Sum         967     967    301                20107    20107    3383
 
     Using Slab Decomposition
 


     bravais-lattice index     =            0
     lattice parameter (alat)  =       5.4385  a.u.
     unit-cell volume          =     113.7417 (a.u.)^3
     number of atoms/cell      =            2
     number of atomic types    =            2
     number of electrons       =         8.00
     number of Kohn-Sham states=            4
     kinetic-energy cutoff     =     120.0000  Ry
     charge density cutoff     =     480.0000  Ry
     scf convergence threshold =      1.0E-08
     mixing beta               =       0.2000
     number of iterations used =            8  local-TF  mixing
     Exchange-correlation= SLA  PW   PBX  PBC
                           (   1   4   3   4   0   0   0)

     celldm(1)=   5.438489  celldm(2)=   0.000000  celldm(3)=   0.000000
     celldm(4)=   0.000000  celldm(5)=   0.000000  celldm(6)=   0.000000

     crystal axes: (cart. coord. in units of alat)
               a(1) = (  -0.707107   0.000000   0.707107 )  
               a(2) = (   0.000000   0.707107   0.707107 )  
               a(3) = (  -0.707107   0.707107   0.000000 )  

     reciprocal axes: (cart. coord. in units 2 pi/alat)
               b(1) = ( -0.707107 -0.707107  0.707107 )  
               b(2) = (  0.707107  0.707107  0.707107 )  
               b(3) = ( -0.707107  0.707107 -0.707107 )  


     PseudoPot. # 1 for Al read from file:
     ../../pseudo/Al.pbe-n-kjpaw_psl.1.0.0.UPF
     MD5 check sum: 502b6b27b9c6270cab5dd1084b96fa6d
     Pseudo is Projector augmented-wave + core cor, Zval =  3.0
     Generated using &quot;atomic&quot; code by A. Dal Corso  v.6.3
     Shape of augmentation charge: PSQ
     Using radial grid of 1135 points,  6 beta functions with: 
                l(1) =   0
                l(2) =   0
                l(3) =   1
                l(4) =   1
                l(5) =   2
                l(6) =   2
     Q(r) pseudized with 0 coefficients 


     PseudoPot. # 2 for N  read from file:
     ../../pseudo/N.pbe-n-kjpaw_psl.1.0.0.UPF
     MD5 check sum: 14c48229446f9f2d411169a3abcbc3fa
     Pseudo is Projector augmented-wave + core cor, Zval =  5.0
     Generated using &quot;atomic&quot; code by A. Dal Corso  v.6.3
     Shape of augmentation charge: PSQ
     Using radial grid of 1085 points,  4 beta functions with: 
                l(1) =   0
                l(2) =   0
                l(3) =   1
                l(4) =   1
     Q(r) pseudized with 0 coefficients 


     atomic species   valence    mass     pseudopotential
        Al             3.00    26.98200     Al( 1.00)
        N              5.00    14.00700     N ( 1.00)

     48 Sym. Ops., with inversion, found



   Cartesian axes

     site n.     atom                  positions (alat units)
         1           Al  tau(   1) = (   0.0000000   0.0000000   0.0000000  )
         2           N   tau(   2) = (  -0.7071068   0.7071068   0.7071068  )

     number of k points=   145

     Number of k-points >= 100: set verbosity='high' to print them.

     Dense  grid:    20107 G-vectors     FFT dimensions: (  40,  40,  40)

     Estimated max dynamical RAM per process >      31.85 MB

     Estimated total dynamical RAM >     122.50 MB

     Initial potential from superposition of free atoms

     starting charge       7.9977, renormalised to       8.0000
     Starting wfcs are    8 randomized atomic wfcs
     Checking if some PAW data can be deallocated... 

     total cpu time spent up to now is        0.7 secs

     Self-consistent Calculation

     iteration #  1     ecut=   120.00 Ry     beta= 0.20
     Davidson diagonalization with overlap
     ethr =  1.00E-02,  avg # of iterations =  1.9

     total cpu time spent up to now is        1.3 secs

     total energy              =     -67.95711316 Ry
     estimated scf accuracy    <       0.44111803 Ry

     iteration #  2     ecut=   120.00 Ry     beta= 0.20
     Davidson diagonalization with overlap
     ethr =  5.51E-03,  avg # of iterations =  1.0

     total cpu time spent up to now is        1.8 secs

     total energy              =     -67.83406122 Ry
     estimated scf accuracy    <       0.26157196 Ry

     iteration #  3     ecut=   120.00 Ry     beta= 0.20
     Davidson diagonalization with overlap
     ethr =  3.27E-03,  avg # of iterations =  2.0

     total cpu time spent up to now is        2.5 secs

     total energy              =     -67.90129909 Ry
     estimated scf accuracy    <       0.00767630 Ry

     iteration #  4     ecut=   120.00 Ry     beta= 0.20
     Davidson diagonalization with overlap
     ethr =  9.60E-05,  avg # of iterations =  2.5

     total cpu time spent up to now is        3.1 secs

     total energy              =     -67.90351258 Ry
     estimated scf accuracy    <       0.00609482 Ry

     iteration #  5     ecut=   120.00 Ry     beta= 0.20
     Davidson diagonalization with overlap
     ethr =  7.62E-05,  avg # of iterations =  1.2

     total cpu time spent up to now is        3.7 secs

     total energy              =     -67.90319673 Ry
     estimated scf accuracy    <       0.00202485 Ry

     iteration #  6     ecut=   120.00 Ry     beta= 0.20
     Davidson diagonalization with overlap
     ethr =  2.53E-05,  avg # of iterations =  2.4

     total cpu time spent up to now is        4.3 secs

     total energy              =     -67.90315419 Ry
     estimated scf accuracy    <       0.00041886 Ry

     iteration #  7     ecut=   120.00 Ry     beta= 0.20
     Davidson diagonalization with overlap
     ethr =  5.24E-06,  avg # of iterations =  3.2

     total cpu time spent up to now is        5.0 secs

     total energy              =     -67.90333647 Ry
     estimated scf accuracy    <       0.00007359 Ry

     iteration #  8     ecut=   120.00 Ry     beta= 0.20
     Davidson diagonalization with overlap
     ethr =  9.20E-07,  avg # of iterations =  2.1

     total cpu time spent up to now is        5.6 secs

     total energy              =     -67.90336196 Ry
     estimated scf accuracy    <       0.00004480 Ry

     iteration #  9     ecut=   120.00 Ry     beta= 0.20
     Davidson diagonalization with overlap
     ethr =  5.60E-07,  avg # of iterations =  2.0

     total cpu time spent up to now is        6.2 secs

     total energy              =     -67.90336710 Ry
     estimated scf accuracy    <       0.00000347 Ry

     iteration # 10     ecut=   120.00 Ry     beta= 0.20
     Davidson diagonalization with overlap
     ethr =  4.33E-08,  avg # of iterations =  1.5

     total cpu time spent up to now is        6.8 secs

     total energy              =     -67.90336671 Ry
     estimated scf accuracy    <       0.00000388 Ry

     iteration # 11     ecut=   120.00 Ry     beta= 0.20
     Davidson diagonalization with overlap
     ethr =  4.33E-08,  avg # of iterations =  1.0

     total cpu time spent up to now is        7.3 secs

     total energy              =     -67.90336616 Ry
     estimated scf accuracy    <       0.00000215 Ry

     iteration # 12     ecut=   120.00 Ry     beta= 0.20
     Davidson diagonalization with overlap
     ethr =  2.69E-08,  avg # of iterations =  1.5

     total cpu time spent up to now is        7.8 secs

     total energy              =     -67.90336622 Ry
     estimated scf accuracy    <       0.00000051 Ry

     iteration # 13     ecut=   120.00 Ry     beta= 0.20
     Davidson diagonalization with overlap
     ethr =  6.37E-09,  avg # of iterations =  2.8

     total cpu time spent up to now is        8.4 secs

     total energy              =     -67.90336630 Ry
     estimated scf accuracy    <       0.00000011 Ry

     iteration # 14     ecut=   120.00 Ry     beta= 0.20
     Davidson diagonalization with overlap
     ethr =  1.32E-09,  avg # of iterations =  2.1

     total cpu time spent up to now is        9.0 secs

     total energy              =     -67.90336628 Ry
     estimated scf accuracy    <       0.00000005 Ry

     iteration # 15     ecut=   120.00 Ry     beta= 0.20
     Davidson diagonalization with overlap
     ethr =  5.86E-10,  avg # of iterations =  2.3

     total cpu time spent up to now is        9.7 secs

     End of self-consistent calculation

     Number of k-points >= 100: set verbosity='high' to print the bands.

     highest occupied level (ev):    10.9194

!    total energy              =     -67.90336629 Ry
     total all-electron energy =      -595.344945 Ry
     estimated scf accuracy    <          9.1E-09 Ry

     The total energy is the sum of the following terms:
     one-electron contribution =       3.33008291 Ry
     hartree contribution      =       4.55985317 Ry
     xc contribution           =      -8.64056155 Ry
     ewald contribution        =     -24.51862769 Ry
     one-center paw contrib.   =     -42.63411314 Ry

     convergence has been achieved in  15 iterations

     Forces acting on atoms (cartesian axes, Ry/au):

     atom    1 type  1   force =    -0.00000000    0.00000000   -0.00000000
     atom    2 type  2   force =     0.00000000   -0.00000000    0.00000000

     Total force =     0.000000     Total SCF correction =     0.000000


     Computing stress (Cartesian axis) and pressure

          total   stress  (Ry/bohr**3)                   (kbar)     P=        5.66
   0.00003847   0.00000000  -0.00000000            5.66        0.00       -0.00
  -0.00000000   0.00003847   0.00000000           -0.00        5.66        0.00
  -0.00000000   0.00000000   0.00003847           -0.00        0.00        5.66


     Writing all to output data dir ../output/AlN.save/
 
     init_run     :      0.56s CPU      0.59s WALL (       1 calls)
     electrons    :      8.72s CPU      9.01s WALL (       1 calls)
     forces       :      0.12s CPU      0.12s WALL (       1 calls)
     stress       :      0.42s CPU      0.43s WALL (       1 calls)

     Called by init_run:
     wfcinit      :      0.27s CPU      0.28s WALL (       1 calls)
     potinit      :      0.08s CPU      0.08s WALL (       1 calls)
     hinit0       :      0.15s CPU      0.15s WALL (       1 calls)

     Called by electrons:
     c_bands      :      6.22s CPU      6.39s WALL (      15 calls)
     sum_band     :      1.33s CPU      1.40s WALL (      15 calls)
     v_of_rho     :      0.14s CPU      0.14s WALL (      16 calls)
     newd         :      0.19s CPU      0.23s WALL (      16 calls)
     PAW_pot      :      0.78s CPU      0.79s WALL (      16 calls)
     mix_rho      :      0.12s CPU      0.13s WALL (      15 calls)

     Called by c_bands:
     init_us_2    :      0.59s CPU      0.61s WALL (    2409 calls)
     init_us_2:cp :      0.58s CPU      0.60s WALL (    2409 calls)
     cegterg      :      4.44s CPU      4.55s WALL (    1095 calls)

     Called by *egterg:
     cdiaghg      :      0.11s CPU      0.11s WALL (    3204 calls)
     h_psi        :      4.07s CPU      4.17s WALL (    3277 calls)
     s_psi        :      0.09s CPU      0.09s WALL (    3277 calls)
     g_psi        :      0.03s CPU      0.03s WALL (    2109 calls)

     Called by h_psi:
     h_psi:calbec :      0.17s CPU      0.18s WALL (    3277 calls)
     vloc_psi     :      3.75s CPU      3.84s WALL (    3277 calls)
     add_vuspsi   :      0.10s CPU      0.10s WALL (    3277 calls)

     General routines
     calbec       :      0.24s CPU      0.25s WALL (    4737 calls)
     fft          :      0.05s CPU      0.05s WALL (     201 calls)
     ffts         :      0.06s CPU      0.06s WALL (     273 calls)
     fftw         :      3.83s CPU      3.91s WALL (   27798 calls)
 
     Parallel routines
 
     PWSCF        :      9.99s CPU     10.51s WALL

 
   This run was terminated on:  15:51: 9  27Apr2026            

=------------------------------------------------------------------------------=
   JOB DONE.
=------------------------------------------------------------------------------=
