
     Program PWSCF v.7.1 starts on 27Apr2026 at 15:54:24 

     This program is part of the open-source Quantum ESPRESSO suite
     for quantum simulation of materials; please cite
         "P. Giannozzi et al., J. Phys.:Condens. Matter 21 395502 (2009);
         "P. Giannozzi et al., J. Phys.:Condens. Matter 29 465901 (2017);
         "P. Giannozzi et al., J. Chem. Phys. 152 154105 (2020);
          URL http://www.quantum-espresso.org", 
     in publications or presentations arising from this work. More details at
     http://www.quantum-espresso.org/quote

     Parallel version (MPI & OpenMP), running on       4 processor cores
     Number of MPI processes:                 4
     Threads/MPI process:                     1

     MPI processes distributed on     1 nodes
     91843 MiB available memory on the printing compute node when the environment starts
 
     Reading input from AlN_scf.in

     Current dimensions of program PWSCF are:
     Max number of different atomic species (ntypx) = 10
     Max number of k-points (npk) = 150000
     Max angular momentum in pseudopotentials (lmaxx) =  4
     file Al.pbe-n-kjpaw_psl.1.0.0.UPF: wavefunction(s)  3S 3P renormalized
     file N.pbe-n-kjpaw_psl.1.0.0.UPF: wavefunction(s)  2S renormalized
     Message from routine setup:
     using ibrav=0 with symmetry is DISCOURAGED, use correct ibrav instead
 
     K-points division:     npool     =       2
     R & G space division:  proc/nbgrp/npool/nimage =       2
     Subspace diagonalization in iterative solution of the eigenvalue problem:
     a serial algorithm will be used

 
     Parallelization info
     --------------------
     sticks:   dense  smooth     PW     G-vecs:    dense   smooth      PW
     Min          42      42     18                  264      264      83
     Max          43      43     19                  267      267      86
     Sum          85      85     37                  531      531     169
 
     Using Slab Decomposition
 


     bravais-lattice index     =            0
     lattice parameter (alat)  =       5.4385  a.u.
     unit-cell volume          =     113.7417 (a.u.)^3
     number of atoms/cell      =            2
     number of atomic types    =            2
     number of electrons       =         8.00
     number of Kohn-Sham states=            4
     kinetic-energy cutoff     =      10.0000  Ry
     charge density cutoff     =      40.0000  Ry
     scf convergence threshold =      1.0E-08
     mixing beta               =       0.2000
     number of iterations used =            8  local-TF  mixing
     Exchange-correlation= SLA  PW   PBX  PBC
                           (   1   4   3   4   0   0   0)

     celldm(1)=   5.438489  celldm(2)=   0.000000  celldm(3)=   0.000000
     celldm(4)=   0.000000  celldm(5)=   0.000000  celldm(6)=   0.000000

     crystal axes: (cart. coord. in units of alat)
               a(1) = (  -0.707107   0.000000   0.707107 )  
               a(2) = (   0.000000   0.707107   0.707107 )  
               a(3) = (  -0.707107   0.707107   0.000000 )  

     reciprocal axes: (cart. coord. in units 2 pi/alat)
               b(1) = ( -0.707107 -0.707107  0.707107 )  
               b(2) = (  0.707107  0.707107  0.707107 )  
               b(3) = ( -0.707107  0.707107 -0.707107 )  


     PseudoPot. # 1 for Al read from file:
     ../../pseudo/Al.pbe-n-kjpaw_psl.1.0.0.UPF
     MD5 check sum: 502b6b27b9c6270cab5dd1084b96fa6d
     Pseudo is Projector augmented-wave + core cor, Zval =  3.0
     Generated using &quot;atomic&quot; code by A. Dal Corso  v.6.3
     Shape of augmentation charge: PSQ
     Using radial grid of 1135 points,  6 beta functions with: 
                l(1) =   0
                l(2) =   0
                l(3) =   1
                l(4) =   1
                l(5) =   2
                l(6) =   2
     Q(r) pseudized with 0 coefficients 


     PseudoPot. # 2 for N  read from file:
     ../../pseudo/N.pbe-n-kjpaw_psl.1.0.0.UPF
     MD5 check sum: 14c48229446f9f2d411169a3abcbc3fa
     Pseudo is Projector augmented-wave + core cor, Zval =  5.0
     Generated using &quot;atomic&quot; code by A. Dal Corso  v.6.3
     Shape of augmentation charge: PSQ
     Using radial grid of 1085 points,  4 beta functions with: 
                l(1) =   0
                l(2) =   0
                l(3) =   1
                l(4) =   1
     Q(r) pseudized with 0 coefficients 


     atomic species   valence    mass     pseudopotential
        Al             3.00    26.98200     Al( 1.00)
        N              5.00    14.00700     N ( 1.00)

     48 Sym. Ops., with inversion, found



   Cartesian axes

     site n.     atom                  positions (alat units)
         1           Al  tau(   1) = (   0.0000000   0.0000000   0.0000000  )
         2           N   tau(   2) = (  -0.7071068   0.7071068   0.7071068  )

     number of k points=   145

     Number of k-points >= 100: set verbosity='high' to print them.

     Dense  grid:      531 G-vectors     FFT dimensions: (  12,  12,  12)

     Estimated max dynamical RAM per process >       1.75 MB

     Estimated total dynamical RAM >       6.88 MB

     Check: negative core charge=   -0.002622

     Initial potential from superposition of free atoms

     starting charge       7.9977, renormalised to       8.0000
     Starting wfcs are    8 randomized atomic wfcs
     Checking if some PAW data can be deallocated... 

     total cpu time spent up to now is        0.4 secs

     Self-consistent Calculation

     iteration #  1     ecut=    10.00 Ry     beta= 0.20
     Davidson diagonalization with overlap
     ethr =  1.00E-02,  avg # of iterations =  2.0

     total cpu time spent up to now is        0.5 secs

     total energy              =     -66.58776470 Ry
     estimated scf accuracy    <       0.23906320 Ry

     iteration #  2     ecut=    10.00 Ry     beta= 0.20
     Davidson diagonalization with overlap
     ethr =  2.99E-03,  avg # of iterations =  1.0

     total cpu time spent up to now is        0.6 secs

     total energy              =     -66.50816229 Ry
     estimated scf accuracy    <       0.17172556 Ry

     iteration #  3     ecut=    10.00 Ry     beta= 0.20
     Davidson diagonalization with overlap
     ethr =  2.15E-03,  avg # of iterations =  2.0

     total cpu time spent up to now is        0.7 secs

     total energy              =     -66.53389364 Ry
     estimated scf accuracy    <       0.00709571 Ry

     iteration #  4     ecut=    10.00 Ry     beta= 0.20
     Davidson diagonalization with overlap
     ethr =  8.87E-05,  avg # of iterations =  2.0

     total cpu time spent up to now is        0.8 secs

     total energy              =     -66.53120479 Ry
     estimated scf accuracy    <       0.01073917 Ry

     iteration #  5     ecut=    10.00 Ry     beta= 0.20
     Davidson diagonalization with overlap
     ethr =  8.87E-05,  avg # of iterations =  1.0

     total cpu time spent up to now is        0.9 secs

     total energy              =     -66.52863116 Ry
     estimated scf accuracy    <       0.00689543 Ry

     iteration #  6     ecut=    10.00 Ry     beta= 0.20
     Davidson diagonalization with overlap
     ethr =  8.62E-05,  avg # of iterations =  1.0

     total cpu time spent up to now is        1.0 secs

     total energy              =     -66.52891969 Ry
     estimated scf accuracy    <       0.00206695 Ry

     iteration #  7     ecut=    10.00 Ry     beta= 0.20
     Davidson diagonalization with overlap
     ethr =  2.58E-05,  avg # of iterations =  1.0

     total cpu time spent up to now is        1.1 secs

     total energy              =     -66.52850839 Ry
     estimated scf accuracy    <       0.00192261 Ry

     iteration #  8     ecut=    10.00 Ry     beta= 0.20
     Davidson diagonalization with overlap
     ethr =  2.40E-05,  avg # of iterations =  1.0

     total cpu time spent up to now is        1.2 secs

     total energy              =     -66.52822795 Ry
     estimated scf accuracy    <       0.00083339 Ry

     iteration #  9     ecut=    10.00 Ry     beta= 0.20
     Davidson diagonalization with overlap
     ethr =  1.04E-05,  avg # of iterations =  1.6

     total cpu time spent up to now is        1.3 secs

     total energy              =     -66.52830357 Ry
     estimated scf accuracy    <       0.00009613 Ry

     iteration # 10     ecut=    10.00 Ry     beta= 0.20
     Davidson diagonalization with overlap
     ethr =  1.20E-06,  avg # of iterations =  2.9

     total cpu time spent up to now is        1.4 secs

     total energy              =     -66.52829352 Ry
     estimated scf accuracy    <       0.00006462 Ry

     iteration # 11     ecut=    10.00 Ry     beta= 0.20
     Davidson diagonalization with overlap
     ethr =  8.08E-07,  avg # of iterations =  1.3

     total cpu time spent up to now is        1.5 secs

     total energy              =     -66.52829705 Ry
     estimated scf accuracy    <       0.00001113 Ry

     iteration # 12     ecut=    10.00 Ry     beta= 0.20
     Davidson diagonalization with overlap
     ethr =  1.39E-07,  avg # of iterations =  1.8

     total cpu time spent up to now is        1.6 secs

     total energy              =     -66.52829628 Ry
     estimated scf accuracy    <       0.00000534 Ry

     iteration # 13     ecut=    10.00 Ry     beta= 0.20
     Davidson diagonalization with overlap
     ethr =  6.67E-08,  avg # of iterations =  1.8

     total cpu time spent up to now is        1.7 secs

     total energy              =     -66.52829648 Ry
     estimated scf accuracy    <       0.00000087 Ry

     iteration # 14     ecut=    10.00 Ry     beta= 0.20
     Davidson diagonalization with overlap
     ethr =  1.09E-08,  avg # of iterations =  2.4

     total cpu time spent up to now is        1.8 secs

     total energy              =     -66.52829664 Ry
     estimated scf accuracy    <       0.00000003 Ry

     iteration # 15     ecut=    10.00 Ry     beta= 0.20
     Davidson diagonalization with overlap
     ethr =  3.66E-10,  avg # of iterations =  3.3

     total cpu time spent up to now is        1.9 secs

     total energy              =     -66.52829667 Ry
     estimated scf accuracy    <       0.00000002 Ry

     iteration # 16     ecut=    10.00 Ry     beta= 0.20
     Davidson diagonalization with overlap
     ethr =  2.12E-10,  avg # of iterations =  2.0

     total cpu time spent up to now is        2.0 secs

     total energy              =     -66.52829665 Ry
     estimated scf accuracy    <       0.00000003 Ry

     iteration # 17     ecut=    10.00 Ry     beta= 0.20
     Davidson diagonalization with overlap
     ethr =  2.12E-10,  avg # of iterations =  2.0

     total cpu time spent up to now is        2.1 secs

     End of self-consistent calculation

     Number of k-points >= 100: set verbosity='high' to print the bands.

     highest occupied level (ev):    12.8469

!    total energy              =     -66.52829666 Ry
     total all-electron energy =      -593.969875 Ry
     estimated scf accuracy    <          5.0E-10 Ry

     The total energy is the sum of the following terms:
     one-electron contribution =       5.66981133 Ry
     hartree contribution      =       3.23235252 Ry
     xc contribution           =      -8.28384547 Ry
     ewald contribution        =     -24.51862769 Ry
     one-center paw contrib.   =     -42.62798734 Ry

     convergence has been achieved in  17 iterations

     Forces acting on atoms (cartesian axes, Ry/au):

     atom    1 type  1   force =     0.00000000    0.00000000   -0.00000000
     atom    2 type  2   force =    -0.00000000   -0.00000000    0.00000000

     Total force =     0.000000     Total SCF correction =     0.000000


     Computing stress (Cartesian axis) and pressure

          total   stress  (Ry/bohr**3)                   (kbar)     P=    -1553.47
  -0.01056028   0.00000000   0.00000000        -1553.47        0.00        0.00
  -0.00000000  -0.01056028  -0.00000000           -0.00    -1553.47       -0.00
   0.00000000   0.00000000  -0.01056028            0.00        0.00    -1553.47


     Writing all to output data dir ../output/AlN.save/
 
     init_run     :      0.13s CPU      0.28s WALL (       1 calls)
     electrons    :      1.56s CPU      1.72s WALL (       1 calls)
     forces       :      0.01s CPU      0.01s WALL (       1 calls)
     stress       :      0.02s CPU      0.02s WALL (       1 calls)

     Called by init_run:
     wfcinit      :      0.02s CPU      0.03s WALL (       1 calls)
     potinit      :      0.05s CPU      0.12s WALL (       1 calls)
     hinit0       :      0.05s CPU      0.09s WALL (       1 calls)

     Called by electrons:
     c_bands      :      0.62s CPU      0.75s WALL (      17 calls)
     sum_band     :      0.12s CPU      0.14s WALL (      17 calls)
     v_of_rho     :      0.01s CPU      0.08s WALL (      18 calls)
     newd         :      0.01s CPU      0.01s WALL (      18 calls)
     PAW_pot      :      0.84s CPU      0.85s WALL (      18 calls)
     mix_rho      :      0.01s CPU      0.01s WALL (      17 calls)

     Called by c_bands:
     init_us_2    :      0.03s CPU      0.03s WALL (    2701 calls)
     init_us_2:cp :      0.02s CPU      0.03s WALL (    2701 calls)
     cegterg      :      0.51s CPU      0.62s WALL (    1241 calls)

     Called by *egterg:
     cdiaghg      :      0.07s CPU      0.08s WALL (    3434 calls)
     h_psi        :      0.35s CPU      0.41s WALL (    3507 calls)
     s_psi        :      0.01s CPU      0.02s WALL (    3507 calls)
     g_psi        :      0.00s CPU      0.00s WALL (    2193 calls)

     Called by h_psi:
     h_psi:calbec :      0.02s CPU      0.03s WALL (    3507 calls)
     vloc_psi     :      0.28s CPU      0.34s WALL (    3507 calls)
     add_vuspsi   :      0.01s CPU      0.02s WALL (    3507 calls)

     General routines
     calbec       :      0.02s CPU      0.03s WALL (    5113 calls)
     fft          :      0.00s CPU      0.12s WALL (     223 calls)
     ffts         :      0.00s CPU      0.00s WALL (     225 calls)
     fftw         :      0.28s CPU      0.34s WALL (   29944 calls)
 
     Parallel routines
 
     PWSCF        :      1.86s CPU      2.32s WALL

 
   This run was terminated on:  15:54:26  27Apr2026            

=------------------------------------------------------------------------------=
   JOB DONE.
=------------------------------------------------------------------------------=
