
     Program PWSCF v.7.1 starts on 27Apr2026 at 15:51:25 

     This program is part of the open-source Quantum ESPRESSO suite
     for quantum simulation of materials; please cite
         "P. Giannozzi et al., J. Phys.:Condens. Matter 21 395502 (2009);
         "P. Giannozzi et al., J. Phys.:Condens. Matter 29 465901 (2017);
         "P. Giannozzi et al., J. Chem. Phys. 152 154105 (2020);
          URL http://www.quantum-espresso.org", 
     in publications or presentations arising from this work. More details at
     http://www.quantum-espresso.org/quote

     Parallel version (MPI & OpenMP), running on       4 processor cores
     Number of MPI processes:                 4
     Threads/MPI process:                     1

     MPI processes distributed on     1 nodes
     90303 MiB available memory on the printing compute node when the environment starts
 
     Reading input from AlN_scf.in

     Current dimensions of program PWSCF are:
     Max number of different atomic species (ntypx) = 10
     Max number of k-points (npk) = 150000
     Max angular momentum in pseudopotentials (lmaxx) =  4
     file Al.pbe-n-kjpaw_psl.1.0.0.UPF: wavefunction(s)  3S 3P renormalized
     file N.pbe-n-kjpaw_psl.1.0.0.UPF: wavefunction(s)  2S renormalized
     Message from routine setup:
     using ibrav=0 with symmetry is DISCOURAGED, use correct ibrav instead
 
     K-points division:     npool     =       2
     R & G space division:  proc/nbgrp/npool/nimage =       2
     Subspace diagonalization in iterative solution of the eigenvalue problem:
     a serial algorithm will be used

 
     Parallelization info
     --------------------
     sticks:   dense  smooth     PW     G-vecs:    dense   smooth      PW
     Min         408     408    126                 7676     7676    1341
     Max         409     409    127                 7677     7677    1344
     Sum         817     817    253                15353    15353    2685
 
     Using Slab Decomposition
 


     bravais-lattice index     =            0
     lattice parameter (alat)  =       5.4385  a.u.
     unit-cell volume          =     113.7417 (a.u.)^3
     number of atoms/cell      =            2
     number of atomic types    =            2
     number of electrons       =         8.00
     number of Kohn-Sham states=            4
     kinetic-energy cutoff     =     100.0000  Ry
     charge density cutoff     =     400.0000  Ry
     scf convergence threshold =      1.0E-08
     mixing beta               =       0.2000
     number of iterations used =            8  local-TF  mixing
     Exchange-correlation= SLA  PW   PBX  PBC
                           (   1   4   3   4   0   0   0)

     celldm(1)=   5.438489  celldm(2)=   0.000000  celldm(3)=   0.000000
     celldm(4)=   0.000000  celldm(5)=   0.000000  celldm(6)=   0.000000

     crystal axes: (cart. coord. in units of alat)
               a(1) = (  -0.707107   0.000000   0.707107 )  
               a(2) = (   0.000000   0.707107   0.707107 )  
               a(3) = (  -0.707107   0.707107   0.000000 )  

     reciprocal axes: (cart. coord. in units 2 pi/alat)
               b(1) = ( -0.707107 -0.707107  0.707107 )  
               b(2) = (  0.707107  0.707107  0.707107 )  
               b(3) = ( -0.707107  0.707107 -0.707107 )  


     PseudoPot. # 1 for Al read from file:
     ../../pseudo/Al.pbe-n-kjpaw_psl.1.0.0.UPF
     MD5 check sum: 502b6b27b9c6270cab5dd1084b96fa6d
     Pseudo is Projector augmented-wave + core cor, Zval =  3.0
     Generated using &quot;atomic&quot; code by A. Dal Corso  v.6.3
     Shape of augmentation charge: PSQ
     Using radial grid of 1135 points,  6 beta functions with: 
                l(1) =   0
                l(2) =   0
                l(3) =   1
                l(4) =   1
                l(5) =   2
                l(6) =   2
     Q(r) pseudized with 0 coefficients 


     PseudoPot. # 2 for N  read from file:
     ../../pseudo/N.pbe-n-kjpaw_psl.1.0.0.UPF
     MD5 check sum: 14c48229446f9f2d411169a3abcbc3fa
     Pseudo is Projector augmented-wave + core cor, Zval =  5.0
     Generated using &quot;atomic&quot; code by A. Dal Corso  v.6.3
     Shape of augmentation charge: PSQ
     Using radial grid of 1085 points,  4 beta functions with: 
                l(1) =   0
                l(2) =   0
                l(3) =   1
                l(4) =   1
     Q(r) pseudized with 0 coefficients 


     atomic species   valence    mass     pseudopotential
        Al             3.00    26.98200     Al( 1.00)
        N              5.00    14.00700     N ( 1.00)

     48 Sym. Ops., with inversion, found



   Cartesian axes

     site n.     atom                  positions (alat units)
         1           Al  tau(   1) = (   0.0000000   0.0000000   0.0000000  )
         2           N   tau(   2) = (  -0.7071068   0.7071068   0.7071068  )

     number of k points=   145

     Number of k-points >= 100: set verbosity='high' to print them.

     Dense  grid:    15353 G-vectors     FFT dimensions: (  36,  36,  36)

     Estimated max dynamical RAM per process >      24.76 MB

     Estimated total dynamical RAM >      95.28 MB

     Initial potential from superposition of free atoms

     starting charge       7.9977, renormalised to       8.0000
     Starting wfcs are    8 randomized atomic wfcs
     Checking if some PAW data can be deallocated... 

     total cpu time spent up to now is        0.6 secs

     Self-consistent Calculation

     iteration #  1     ecut=   100.00 Ry     beta= 0.20
     Davidson diagonalization with overlap
     ethr =  1.00E-02,  avg # of iterations =  1.9

     total cpu time spent up to now is        1.1 secs

     total energy              =     -67.95659473 Ry
     estimated scf accuracy    <       0.44182963 Ry

     iteration #  2     ecut=   100.00 Ry     beta= 0.20
     Davidson diagonalization with overlap
     ethr =  5.52E-03,  avg # of iterations =  1.0

     total cpu time spent up to now is        1.5 secs

     total energy              =     -67.83395275 Ry
     estimated scf accuracy    <       0.26169204 Ry

     iteration #  3     ecut=   100.00 Ry     beta= 0.20
     Davidson diagonalization with overlap
     ethr =  3.27E-03,  avg # of iterations =  2.0

     total cpu time spent up to now is        2.0 secs

     total energy              =     -67.90130743 Ry
     estimated scf accuracy    <       0.00770938 Ry

     iteration #  4     ecut=   100.00 Ry     beta= 0.20
     Davidson diagonalization with overlap
     ethr =  9.64E-05,  avg # of iterations =  2.4

     total cpu time spent up to now is        2.6 secs

     total energy              =     -67.90348356 Ry
     estimated scf accuracy    <       0.00639266 Ry

     iteration #  5     ecut=   100.00 Ry     beta= 0.20
     Davidson diagonalization with overlap
     ethr =  7.99E-05,  avg # of iterations =  1.2

     total cpu time spent up to now is        3.0 secs

     total energy              =     -67.90323054 Ry
     estimated scf accuracy    <       0.00208150 Ry

     iteration #  6     ecut=   100.00 Ry     beta= 0.20
     Davidson diagonalization with overlap
     ethr =  2.60E-05,  avg # of iterations =  2.0

     total cpu time spent up to now is        3.5 secs

     total energy              =     -67.90298661 Ry
     estimated scf accuracy    <       0.00057962 Ry

     iteration #  7     ecut=   100.00 Ry     beta= 0.20
     Davidson diagonalization with overlap
     ethr =  7.25E-06,  avg # of iterations =  3.2

     total cpu time spent up to now is        4.0 secs

     total energy              =     -67.90322871 Ry
     estimated scf accuracy    <       0.00029754 Ry

     iteration #  8     ecut=   100.00 Ry     beta= 0.20
     Davidson diagonalization with overlap
     ethr =  3.72E-06,  avg # of iterations =  2.0

     total cpu time spent up to now is        4.5 secs

     total energy              =     -67.90331899 Ry
     estimated scf accuracy    <       0.00003654 Ry

     iteration #  9     ecut=   100.00 Ry     beta= 0.20
     Davidson diagonalization with overlap
     ethr =  4.57E-07,  avg # of iterations =  2.0

     total cpu time spent up to now is        5.0 secs

     total energy              =     -67.90332458 Ry
     estimated scf accuracy    <       0.00000169 Ry

     iteration # 10     ecut=   100.00 Ry     beta= 0.20
     Davidson diagonalization with overlap
     ethr =  2.11E-08,  avg # of iterations =  1.7

     total cpu time spent up to now is        5.5 secs

     total energy              =     -67.90332469 Ry
     estimated scf accuracy    <       0.00000265 Ry

     iteration # 11     ecut=   100.00 Ry     beta= 0.20
     Davidson diagonalization with overlap
     ethr =  2.11E-08,  avg # of iterations =  1.0

     total cpu time spent up to now is        5.9 secs

     total energy              =     -67.90332469 Ry
     estimated scf accuracy    <       0.00000246 Ry

     iteration # 12     ecut=   100.00 Ry     beta= 0.20
     Davidson diagonalization with overlap
     ethr =  2.11E-08,  avg # of iterations =  1.0

     total cpu time spent up to now is        6.3 secs

     total energy              =     -67.90332479 Ry
     estimated scf accuracy    <       0.00000235 Ry

     iteration # 13     ecut=   100.00 Ry     beta= 0.20
     Davidson diagonalization with overlap
     ethr =  2.11E-08,  avg # of iterations =  1.0

     total cpu time spent up to now is        6.8 secs

     total energy              =     -67.90332369 Ry
     estimated scf accuracy    <       0.00000262 Ry

     iteration # 14     ecut=   100.00 Ry     beta= 0.20
     Davidson diagonalization with overlap
     ethr =  2.11E-08,  avg # of iterations =  2.0

     total cpu time spent up to now is        7.3 secs

     total energy              =     -67.90332388 Ry
     estimated scf accuracy    <       0.00000023 Ry

     iteration # 15     ecut=   100.00 Ry     beta= 0.20
     Davidson diagonalization with overlap
     ethr =  2.89E-09,  avg # of iterations =  2.2

     total cpu time spent up to now is        7.8 secs

     End of self-consistent calculation

     Number of k-points >= 100: set verbosity='high' to print the bands.

     highest occupied level (ev):    10.9190

!    total energy              =     -67.90332393 Ry
     total all-electron energy =      -595.344902 Ry
     estimated scf accuracy    <          2.1E-09 Ry

     The total energy is the sum of the following terms:
     one-electron contribution =       3.32976479 Ry
     hartree contribution      =       4.56026183 Ry
     xc contribution           =      -8.64063407 Ry
     ewald contribution        =     -24.51862769 Ry
     one-center paw contrib.   =     -42.63408879 Ry

     convergence has been achieved in  15 iterations

     Forces acting on atoms (cartesian axes, Ry/au):

     atom    1 type  1   force =     0.00000000    0.00000000   -0.00000000
     atom    2 type  2   force =    -0.00000000   -0.00000000    0.00000000

     Total force =     0.000000     Total SCF correction =     0.000000


     Computing stress (Cartesian axis) and pressure

          total   stress  (Ry/bohr**3)                   (kbar)     P=        6.01
   0.00004085   0.00000000   0.00000000            6.01        0.00        0.00
  -0.00000000   0.00004085  -0.00000000           -0.00        6.01       -0.00
   0.00000000  -0.00000000   0.00004085            0.00       -0.00        6.01


     Writing all to output data dir ../output/AlN.save/
 
     init_run     :      0.47s CPU      0.49s WALL (       1 calls)
     electrons    :      6.88s CPU      7.16s WALL (       1 calls)
     forces       :      0.09s CPU      0.10s WALL (       1 calls)
     stress       :      0.32s CPU      0.33s WALL (       1 calls)

     Called by init_run:
     wfcinit      :      0.21s CPU      0.22s WALL (       1 calls)
     potinit      :      0.07s CPU      0.08s WALL (       1 calls)
     hinit0       :      0.14s CPU      0.14s WALL (       1 calls)

     Called by electrons:
     c_bands      :      4.79s CPU      4.95s WALL (      15 calls)
     sum_band     :      1.02s CPU      1.09s WALL (      15 calls)
     v_of_rho     :      0.10s CPU      0.11s WALL (      16 calls)
     newd         :      0.15s CPU      0.18s WALL (      16 calls)
     PAW_pot      :      0.78s CPU      0.79s WALL (      16 calls)
     mix_rho      :      0.10s CPU      0.10s WALL (      15 calls)

     Called by c_bands:
     init_us_2    :      0.45s CPU      0.47s WALL (    2409 calls)
     init_us_2:cp :      0.44s CPU      0.46s WALL (    2409 calls)
     cegterg      :      3.47s CPU      3.59s WALL (    1095 calls)

     Called by *egterg:
     cdiaghg      :      0.10s CPU      0.10s WALL (    3010 calls)
     h_psi        :      3.17s CPU      3.28s WALL (    3083 calls)
     s_psi        :      0.08s CPU      0.08s WALL (    3083 calls)
     g_psi        :      0.03s CPU      0.03s WALL (    1915 calls)

     Called by h_psi:
     h_psi:calbec :      0.13s CPU      0.13s WALL (    3083 calls)
     vloc_psi     :      2.92s CPU      3.02s WALL (    3083 calls)
     add_vuspsi   :      0.08s CPU      0.08s WALL (    3083 calls)

     General routines
     calbec       :      0.18s CPU      0.18s WALL (    4543 calls)
     fft          :      0.04s CPU      0.04s WALL (     201 calls)
     ffts         :      0.05s CPU      0.05s WALL (     275 calls)
     fftw         :      3.02s CPU      3.12s WALL (   27908 calls)
 
     Parallel routines
 
     PWSCF        :      7.94s CPU      8.43s WALL

 
   This run was terminated on:  15:51:33  27Apr2026            

=------------------------------------------------------------------------------=
   JOB DONE.
=------------------------------------------------------------------------------=
