
     Program PWSCF v.7.1 starts on 27Apr2026 at 15:52:21 

     This program is part of the open-source Quantum ESPRESSO suite
     for quantum simulation of materials; please cite
         "P. Giannozzi et al., J. Phys.:Condens. Matter 21 395502 (2009);
         "P. Giannozzi et al., J. Phys.:Condens. Matter 29 465901 (2017);
         "P. Giannozzi et al., J. Chem. Phys. 152 154105 (2020);
          URL http://www.quantum-espresso.org", 
     in publications or presentations arising from this work. More details at
     http://www.quantum-espresso.org/quote

     Parallel version (MPI & OpenMP), running on       4 processor cores
     Number of MPI processes:                 4
     Threads/MPI process:                     1

     MPI processes distributed on     1 nodes
     90356 MiB available memory on the printing compute node when the environment starts
 
     Reading input from AlN_scf.in

     Current dimensions of program PWSCF are:
     Max number of different atomic species (ntypx) = 10
     Max number of k-points (npk) = 150000
     Max angular momentum in pseudopotentials (lmaxx) =  4
     file Al.pbe-n-kjpaw_psl.1.0.0.UPF: wavefunction(s)  3S 3P renormalized
     file N.pbe-n-kjpaw_psl.1.0.0.UPF: wavefunction(s)  2S renormalized
     Message from routine setup:
     using ibrav=0 with symmetry is DISCOURAGED, use correct ibrav instead
 
     K-points division:     npool     =       2
     R & G space division:  proc/nbgrp/npool/nimage =       2
     Subspace diagonalization in iterative solution of the eigenvalue problem:
     a serial algorithm will be used

 
     Parallelization info
     --------------------
     sticks:   dense  smooth     PW     G-vecs:    dense   smooth      PW
     Min         324     324     99                 5483     5483     957
     Max         325     325    100                 5486     5486     960
     Sum         649     649    199                10969    10969    1917
 
     Using Slab Decomposition
 


     bravais-lattice index     =            0
     lattice parameter (alat)  =       5.4385  a.u.
     unit-cell volume          =     113.7417 (a.u.)^3
     number of atoms/cell      =            2
     number of atomic types    =            2
     number of electrons       =         8.00
     number of Kohn-Sham states=            4
     kinetic-energy cutoff     =      80.0000  Ry
     charge density cutoff     =     320.0000  Ry
     scf convergence threshold =      1.0E-08
     mixing beta               =       0.2000
     number of iterations used =            8  local-TF  mixing
     Exchange-correlation= SLA  PW   PBX  PBC
                           (   1   4   3   4   0   0   0)

     celldm(1)=   5.438489  celldm(2)=   0.000000  celldm(3)=   0.000000
     celldm(4)=   0.000000  celldm(5)=   0.000000  celldm(6)=   0.000000

     crystal axes: (cart. coord. in units of alat)
               a(1) = (  -0.707107   0.000000   0.707107 )  
               a(2) = (   0.000000   0.707107   0.707107 )  
               a(3) = (  -0.707107   0.707107   0.000000 )  

     reciprocal axes: (cart. coord. in units 2 pi/alat)
               b(1) = ( -0.707107 -0.707107  0.707107 )  
               b(2) = (  0.707107  0.707107  0.707107 )  
               b(3) = ( -0.707107  0.707107 -0.707107 )  


     PseudoPot. # 1 for Al read from file:
     ../../pseudo/Al.pbe-n-kjpaw_psl.1.0.0.UPF
     MD5 check sum: 502b6b27b9c6270cab5dd1084b96fa6d
     Pseudo is Projector augmented-wave + core cor, Zval =  3.0
     Generated using &quot;atomic&quot; code by A. Dal Corso  v.6.3
     Shape of augmentation charge: PSQ
     Using radial grid of 1135 points,  6 beta functions with: 
                l(1) =   0
                l(2) =   0
                l(3) =   1
                l(4) =   1
                l(5) =   2
                l(6) =   2
     Q(r) pseudized with 0 coefficients 


     PseudoPot. # 2 for N  read from file:
     ../../pseudo/N.pbe-n-kjpaw_psl.1.0.0.UPF
     MD5 check sum: 14c48229446f9f2d411169a3abcbc3fa
     Pseudo is Projector augmented-wave + core cor, Zval =  5.0
     Generated using &quot;atomic&quot; code by A. Dal Corso  v.6.3
     Shape of augmentation charge: PSQ
     Using radial grid of 1085 points,  4 beta functions with: 
                l(1) =   0
                l(2) =   0
                l(3) =   1
                l(4) =   1
     Q(r) pseudized with 0 coefficients 


     atomic species   valence    mass     pseudopotential
        Al             3.00    26.98200     Al( 1.00)
        N              5.00    14.00700     N ( 1.00)

     48 Sym. Ops., with inversion, found



   Cartesian axes

     site n.     atom                  positions (alat units)
         1           Al  tau(   1) = (   0.0000000   0.0000000   0.0000000  )
         2           N   tau(   2) = (  -0.7071068   0.7071068   0.7071068  )

     number of k points=   145

     Number of k-points >= 100: set verbosity='high' to print them.

     Dense  grid:    10969 G-vectors     FFT dimensions: (  32,  32,  32)

     Estimated max dynamical RAM per process >      18.25 MB

     Estimated total dynamical RAM >      70.31 MB

     Initial potential from superposition of free atoms

     starting charge       7.9977, renormalised to       8.0000
     Starting wfcs are    8 randomized atomic wfcs
     Checking if some PAW data can be deallocated... 

     total cpu time spent up to now is        0.5 secs

     Self-consistent Calculation

     iteration #  1     ecut=    80.00 Ry     beta= 0.20
     Davidson diagonalization with overlap
     ethr =  1.00E-02,  avg # of iterations =  1.9

     total cpu time spent up to now is        0.8 secs

     total energy              =     -67.95710463 Ry
     estimated scf accuracy    <       0.44054380 Ry

     iteration #  2     ecut=    80.00 Ry     beta= 0.20
     Davidson diagonalization with overlap
     ethr =  5.51E-03,  avg # of iterations =  1.0

     total cpu time spent up to now is        1.1 secs

     total energy              =     -67.83408895 Ry
     estimated scf accuracy    <       0.26135194 Ry

     iteration #  3     ecut=    80.00 Ry     beta= 0.20
     Davidson diagonalization with overlap
     ethr =  3.27E-03,  avg # of iterations =  2.0

     total cpu time spent up to now is        1.5 secs

     total energy              =     -67.90131898 Ry
     estimated scf accuracy    <       0.00778899 Ry

     iteration #  4     ecut=    80.00 Ry     beta= 0.20
     Davidson diagonalization with overlap
     ethr =  9.74E-05,  avg # of iterations =  2.3

     total cpu time spent up to now is        1.8 secs

     total energy              =     -67.90334118 Ry
     estimated scf accuracy    <       0.00710743 Ry

     iteration #  5     ecut=    80.00 Ry     beta= 0.20
     Davidson diagonalization with overlap
     ethr =  8.88E-05,  avg # of iterations =  1.3

     total cpu time spent up to now is        2.1 secs

     total energy              =     -67.90322750 Ry
     estimated scf accuracy    <       0.00205020 Ry

     iteration #  6     ecut=    80.00 Ry     beta= 0.20
     Davidson diagonalization with overlap
     ethr =  2.56E-05,  avg # of iterations =  2.0

     total cpu time spent up to now is        2.4 secs

     total energy              =     -67.90289741 Ry
     estimated scf accuracy    <       0.00064335 Ry

     iteration #  7     ecut=    80.00 Ry     beta= 0.20
     Davidson diagonalization with overlap
     ethr =  8.04E-06,  avg # of iterations =  3.2

     total cpu time spent up to now is        2.8 secs

     total energy              =     -67.90313113 Ry
     estimated scf accuracy    <       0.00051230 Ry

     iteration #  8     ecut=    80.00 Ry     beta= 0.20
     Davidson diagonalization with overlap
     ethr =  6.40E-06,  avg # of iterations =  2.0

     total cpu time spent up to now is        3.1 secs

     total energy              =     -67.90328202 Ry
     estimated scf accuracy    <       0.00004971 Ry

     iteration #  9     ecut=    80.00 Ry     beta= 0.20
     Davidson diagonalization with overlap
     ethr =  6.21E-07,  avg # of iterations =  2.0

     total cpu time spent up to now is        3.5 secs

     total energy              =     -67.90329111 Ry
     estimated scf accuracy    <       0.00000130 Ry

     iteration # 10     ecut=    80.00 Ry     beta= 0.20
     Davidson diagonalization with overlap
     ethr =  1.62E-08,  avg # of iterations =  3.1

     total cpu time spent up to now is        3.8 secs

     total energy              =     -67.90329193 Ry
     estimated scf accuracy    <       0.00000422 Ry

     iteration # 11     ecut=    80.00 Ry     beta= 0.20
     Davidson diagonalization with overlap
     ethr =  1.62E-08,  avg # of iterations =  1.0

     total cpu time spent up to now is        4.1 secs

     total energy              =     -67.90329098 Ry
     estimated scf accuracy    <       0.00000471 Ry

     iteration # 12     ecut=    80.00 Ry     beta= 0.20
     Davidson diagonalization with overlap
     ethr =  1.62E-08,  avg # of iterations =  1.1

     total cpu time spent up to now is        4.4 secs

     total energy              =     -67.90329096 Ry
     estimated scf accuracy    <       0.00000235 Ry

     iteration # 13     ecut=    80.00 Ry     beta= 0.20
     Davidson diagonalization with overlap
     ethr =  1.62E-08,  avg # of iterations =  1.0

     total cpu time spent up to now is        4.7 secs

     total energy              =     -67.90329042 Ry
     estimated scf accuracy    <       0.00000199 Ry

     iteration # 14     ecut=    80.00 Ry     beta= 0.20
     Davidson diagonalization with overlap
     ethr =  1.62E-08,  avg # of iterations =  1.8

     total cpu time spent up to now is        5.0 secs

     total energy              =     -67.90329020 Ry
     estimated scf accuracy    <       0.00000053 Ry

     iteration # 15     ecut=    80.00 Ry     beta= 0.20
     Davidson diagonalization with overlap
     ethr =  6.62E-09,  avg # of iterations =  2.8

     total cpu time spent up to now is        5.3 secs

     total energy              =     -67.90329041 Ry
     estimated scf accuracy    <       0.00000015 Ry

     iteration # 16     ecut=    80.00 Ry     beta= 0.20
     Davidson diagonalization with overlap
     ethr =  1.82E-09,  avg # of iterations =  2.0

     total cpu time spent up to now is        5.7 secs

     End of self-consistent calculation

     Number of k-points >= 100: set verbosity='high' to print the bands.

     highest occupied level (ev):    10.9191

!    total energy              =     -67.90329044 Ry
     total all-electron energy =      -595.344869 Ry
     estimated scf accuracy    <          1.5E-09 Ry

     The total energy is the sum of the following terms:
     one-electron contribution =       3.33007711 Ry
     hartree contribution      =       4.55991768 Ry
     xc contribution           =      -8.64056520 Ry
     ewald contribution        =     -24.51862769 Ry
     one-center paw contrib.   =     -42.63409234 Ry

     convergence has been achieved in  16 iterations

     Forces acting on atoms (cartesian axes, Ry/au):

     atom    1 type  1   force =    -0.00000000   -0.00000000    0.00000000
     atom    2 type  2   force =     0.00000000    0.00000000   -0.00000000

     Total force =     0.000000     Total SCF correction =     0.000000


     Computing stress (Cartesian axis) and pressure

          total   stress  (Ry/bohr**3)                   (kbar)     P=        5.41
   0.00003677  -0.00000000   0.00000000            5.41       -0.00        0.00
  -0.00000000   0.00003677   0.00000000           -0.00        5.41        0.00
  -0.00000000   0.00000000   0.00003677           -0.00        0.00        5.41


     Writing all to output data dir ../output/AlN.save/
 
     init_run     :      0.35s CPU      0.39s WALL (       1 calls)
     electrons    :      4.95s CPU      5.16s WALL (       1 calls)
     forces       :      0.07s CPU      0.07s WALL (       1 calls)
     stress       :      0.23s CPU      0.24s WALL (       1 calls)

     Called by init_run:
     wfcinit      :      0.13s CPU      0.13s WALL (       1 calls)
     potinit      :      0.07s CPU      0.08s WALL (       1 calls)
     hinit0       :      0.12s CPU      0.12s WALL (       1 calls)

     Called by electrons:
     c_bands      :      3.23s CPU      3.39s WALL (      16 calls)
     sum_band     :      0.68s CPU      0.72s WALL (      16 calls)
     v_of_rho     :      0.08s CPU      0.08s WALL (      17 calls)
     newd         :      0.12s CPU      0.12s WALL (      17 calls)
     PAW_pot      :      0.82s CPU      0.83s WALL (      17 calls)
     mix_rho      :      0.07s CPU      0.07s WALL (      16 calls)

     Called by c_bands:
     init_us_2    :      0.34s CPU      0.36s WALL (    2555 calls)
     init_us_2:cp :      0.33s CPU      0.35s WALL (    2555 calls)
     cegterg      :      2.19s CPU      2.28s WALL (    1168 calls)

     Called by *egterg:
     cdiaghg      :      0.10s CPU      0.11s WALL (    3344 calls)
     h_psi        :      1.85s CPU      1.93s WALL (    3417 calls)
     s_psi        :      0.06s CPU      0.07s WALL (    3417 calls)
     g_psi        :      0.02s CPU      0.02s WALL (    2176 calls)

     Called by h_psi:
     h_psi:calbec :      0.11s CPU      0.11s WALL (    3417 calls)
     vloc_psi     :      1.64s CPU      1.70s WALL (    3417 calls)
     add_vuspsi   :      0.07s CPU      0.07s WALL (    3417 calls)

     General routines
     calbec       :      0.14s CPU      0.15s WALL (    4950 calls)
     fft          :      0.03s CPU      0.03s WALL (     212 calls)
     ffts         :      0.03s CPU      0.03s WALL (     295 calls)
     fftw         :      1.58s CPU      1.65s WALL (   30138 calls)
 
     Parallel routines
 
     PWSCF        :      5.75s CPU      6.17s WALL

 
   This run was terminated on:  15:52:27  27Apr2026            

=------------------------------------------------------------------------------=
   JOB DONE.
=------------------------------------------------------------------------------=
