
     Program PWSCF v.7.1 starts on 27Apr2026 at 15:49:37 

     This program is part of the open-source Quantum ESPRESSO suite
     for quantum simulation of materials; please cite
         "P. Giannozzi et al., J. Phys.:Condens. Matter 21 395502 (2009);
         "P. Giannozzi et al., J. Phys.:Condens. Matter 29 465901 (2017);
         "P. Giannozzi et al., J. Chem. Phys. 152 154105 (2020);
          URL http://www.quantum-espresso.org", 
     in publications or presentations arising from this work. More details at
     http://www.quantum-espresso.org/quote

     Parallel version (MPI & OpenMP), running on       4 processor cores
     Number of MPI processes:                 4
     Threads/MPI process:                     1

     MPI processes distributed on     1 nodes
     90346 MiB available memory on the printing compute node when the environment starts
 
     Reading input from AlN_scf.in

     Current dimensions of program PWSCF are:
     Max number of different atomic species (ntypx) = 10
     Max number of k-points (npk) = 150000
     Max angular momentum in pseudopotentials (lmaxx) =  4
     file Al.pbe-n-kjpaw_psl.1.0.0.UPF: wavefunction(s)  3S 3P renormalized
     file N.pbe-n-kjpaw_psl.1.0.0.UPF: wavefunction(s)  2S renormalized
     Message from routine setup:
     using ibrav=0 with symmetry is DISCOURAGED, use correct ibrav instead
 
     K-points division:     npool     =       2
     R & G space division:  proc/nbgrp/npool/nimage =       2
     Subspace diagonalization in iterative solution of the eigenvalue problem:
     a serial algorithm will be used

 
     Parallelization info
     --------------------
     sticks:   dense  smooth     PW     G-vecs:    dense   smooth      PW
     Min         642     642    189                15459    15459    2477
     Max         643     643    190                15464    15464    2480
     Sum        1285    1285    379                30923    30923    4957
 
     Using Slab Decomposition
 


     bravais-lattice index     =            0
     lattice parameter (alat)  =       5.4385  a.u.
     unit-cell volume          =     113.7417 (a.u.)^3
     number of atoms/cell      =            2
     number of atomic types    =            2
     number of electrons       =         8.00
     number of Kohn-Sham states=            4
     kinetic-energy cutoff     =     160.0000  Ry
     charge density cutoff     =     640.0000  Ry
     scf convergence threshold =      1.0E-08
     mixing beta               =       0.2000
     number of iterations used =            8  local-TF  mixing
     Exchange-correlation= SLA  PW   PBX  PBC
                           (   1   4   3   4   0   0   0)

     celldm(1)=   5.438489  celldm(2)=   0.000000  celldm(3)=   0.000000
     celldm(4)=   0.000000  celldm(5)=   0.000000  celldm(6)=   0.000000

     crystal axes: (cart. coord. in units of alat)
               a(1) = (  -0.707107   0.000000   0.707107 )  
               a(2) = (   0.000000   0.707107   0.707107 )  
               a(3) = (  -0.707107   0.707107   0.000000 )  

     reciprocal axes: (cart. coord. in units 2 pi/alat)
               b(1) = ( -0.707107 -0.707107  0.707107 )  
               b(2) = (  0.707107  0.707107  0.707107 )  
               b(3) = ( -0.707107  0.707107 -0.707107 )  


     PseudoPot. # 1 for Al read from file:
     ../../pseudo/Al.pbe-n-kjpaw_psl.1.0.0.UPF
     MD5 check sum: 502b6b27b9c6270cab5dd1084b96fa6d
     Pseudo is Projector augmented-wave + core cor, Zval =  3.0
     Generated using &quot;atomic&quot; code by A. Dal Corso  v.6.3
     Shape of augmentation charge: PSQ
     Using radial grid of 1135 points,  6 beta functions with: 
                l(1) =   0
                l(2) =   0
                l(3) =   1
                l(4) =   1
                l(5) =   2
                l(6) =   2
     Q(r) pseudized with 0 coefficients 


     PseudoPot. # 2 for N  read from file:
     ../../pseudo/N.pbe-n-kjpaw_psl.1.0.0.UPF
     MD5 check sum: 14c48229446f9f2d411169a3abcbc3fa
     Pseudo is Projector augmented-wave + core cor, Zval =  5.0
     Generated using &quot;atomic&quot; code by A. Dal Corso  v.6.3
     Shape of augmentation charge: PSQ
     Using radial grid of 1085 points,  4 beta functions with: 
                l(1) =   0
                l(2) =   0
                l(3) =   1
                l(4) =   1
     Q(r) pseudized with 0 coefficients 


     atomic species   valence    mass     pseudopotential
        Al             3.00    26.98200     Al( 1.00)
        N              5.00    14.00700     N ( 1.00)

     48 Sym. Ops., with inversion, found



   Cartesian axes

     site n.     atom                  positions (alat units)
         1           Al  tau(   1) = (   0.0000000   0.0000000   0.0000000  )
         2           N   tau(   2) = (  -0.7071068   0.7071068   0.7071068  )

     number of k points=   145

     Number of k-points >= 100: set verbosity='high' to print them.

     Dense  grid:    30923 G-vectors     FFT dimensions: (  45,  45,  45)

     Estimated max dynamical RAM per process >      47.48 MB

     Estimated total dynamical RAM >     182.36 MB

     Initial potential from superposition of free atoms

     starting charge       7.9977, renormalised to       8.0000
     Starting wfcs are    8 randomized atomic wfcs
     Checking if some PAW data can be deallocated... 

     total cpu time spent up to now is        1.0 secs

     Self-consistent Calculation

     iteration #  1     ecut=   160.00 Ry     beta= 0.20
     Davidson diagonalization with overlap
     ethr =  1.00E-02,  avg # of iterations =  1.9

     total cpu time spent up to now is        2.1 secs

     total energy              =     -67.95707699 Ry
     estimated scf accuracy    <       0.44172174 Ry

     iteration #  2     ecut=   160.00 Ry     beta= 0.20
     Davidson diagonalization with overlap
     ethr =  5.52E-03,  avg # of iterations =  1.0

     total cpu time spent up to now is        2.9 secs

     total energy              =     -67.83443182 Ry
     estimated scf accuracy    <       0.26151028 Ry

     iteration #  3     ecut=   160.00 Ry     beta= 0.20
     Davidson diagonalization with overlap
     ethr =  3.27E-03,  avg # of iterations =  2.0

     total cpu time spent up to now is        4.1 secs

     total energy              =     -67.90132588 Ry
     estimated scf accuracy    <       0.00763237 Ry

     iteration #  4     ecut=   160.00 Ry     beta= 0.20
     Davidson diagonalization with overlap
     ethr =  9.54E-05,  avg # of iterations =  2.5

     total cpu time spent up to now is        5.2 secs

     total energy              =     -67.90355280 Ry
     estimated scf accuracy    <       0.00580754 Ry

     iteration #  5     ecut=   160.00 Ry     beta= 0.20
     Davidson diagonalization with overlap
     ethr =  7.26E-05,  avg # of iterations =  1.2

     total cpu time spent up to now is        6.1 secs

     total energy              =     -67.90326046 Ry
     estimated scf accuracy    <       0.00195128 Ry

     iteration #  6     ecut=   160.00 Ry     beta= 0.20
     Davidson diagonalization with overlap
     ethr =  2.44E-05,  avg # of iterations =  2.3

     total cpu time spent up to now is        7.2 secs

     total energy              =     -67.90314974 Ry
     estimated scf accuracy    <       0.00045699 Ry

     iteration #  7     ecut=   160.00 Ry     beta= 0.20
     Davidson diagonalization with overlap
     ethr =  5.71E-06,  avg # of iterations =  3.1

     total cpu time spent up to now is        8.4 secs

     total energy              =     -67.90334294 Ry
     estimated scf accuracy    <       0.00010669 Ry

     iteration #  8     ecut=   160.00 Ry     beta= 0.20
     Davidson diagonalization with overlap
     ethr =  1.33E-06,  avg # of iterations =  2.0

     total cpu time spent up to now is        9.5 secs

     total energy              =     -67.90337798 Ry
     estimated scf accuracy    <       0.00004382 Ry

     iteration #  9     ecut=   160.00 Ry     beta= 0.20
     Davidson diagonalization with overlap
     ethr =  5.48E-07,  avg # of iterations =  2.0

     total cpu time spent up to now is       10.6 secs

     total energy              =     -67.90338448 Ry
     estimated scf accuracy    <       0.00000151 Ry

     iteration # 10     ecut=   160.00 Ry     beta= 0.20
     Davidson diagonalization with overlap
     ethr =  1.89E-08,  avg # of iterations =  1.8

     total cpu time spent up to now is       11.6 secs

     total energy              =     -67.90338431 Ry
     estimated scf accuracy    <       0.00000293 Ry

     iteration # 11     ecut=   160.00 Ry     beta= 0.20
     Davidson diagonalization with overlap
     ethr =  1.89E-08,  avg # of iterations =  1.0

     total cpu time spent up to now is       12.5 secs

     total energy              =     -67.90338416 Ry
     estimated scf accuracy    <       0.00000207 Ry

     iteration # 12     ecut=   160.00 Ry     beta= 0.20
     Davidson diagonalization with overlap
     ethr =  1.89E-08,  avg # of iterations =  1.0

     total cpu time spent up to now is       13.4 secs

     total energy              =     -67.90338383 Ry
     estimated scf accuracy    <       0.00000147 Ry

     iteration # 13     ecut=   160.00 Ry     beta= 0.20
     Davidson diagonalization with overlap
     ethr =  1.84E-08,  avg # of iterations =  1.0

     total cpu time spent up to now is       14.3 secs

     total energy              =     -67.90338367 Ry
     estimated scf accuracy    <       0.00000060 Ry

     iteration # 14     ecut=   160.00 Ry     beta= 0.20
     Davidson diagonalization with overlap
     ethr =  7.55E-09,  avg # of iterations =  2.1

     total cpu time spent up to now is       15.3 secs

     total energy              =     -67.90338375 Ry
     estimated scf accuracy    <       0.00000006 Ry

     iteration # 15     ecut=   160.00 Ry     beta= 0.20
     Davidson diagonalization with overlap
     ethr =  8.08E-10,  avg # of iterations =  3.6

     total cpu time spent up to now is       16.6 secs

     End of self-consistent calculation

     Number of k-points >= 100: set verbosity='high' to print the bands.

     highest occupied level (ev):    10.9188

!    total energy              =     -67.90338376 Ry
     total all-electron energy =      -595.344962 Ry
     estimated scf accuracy    <          1.9E-09 Ry

     The total energy is the sum of the following terms:
     one-electron contribution =       3.32983138 Ry
     hartree contribution      =       4.56018416 Ry
     xc contribution           =      -8.64065570 Ry
     ewald contribution        =     -24.51862769 Ry
     one-center paw contrib.   =     -42.63411592 Ry

     convergence has been achieved in  15 iterations

     Forces acting on atoms (cartesian axes, Ry/au):

     atom    1 type  1   force =    -0.00000000   -0.00000000    0.00000000
     atom    2 type  2   force =     0.00000000   -0.00000000   -0.00000000

     Total force =     0.000000     Total SCF correction =     0.000000


     Computing stress (Cartesian axis) and pressure

          total   stress  (Ry/bohr**3)                   (kbar)     P=        6.06
   0.00004122  -0.00000000  -0.00000000            6.06       -0.00       -0.00
  -0.00000000   0.00004122  -0.00000000           -0.00        6.06       -0.00
   0.00000000  -0.00000000   0.00004122            0.00       -0.00        6.06


     Writing all to output data dir ../output/AlN.save/
 
     init_run     :      0.87s CPU      0.91s WALL (       1 calls)
     electrons    :     15.15s CPU     15.53s WALL (       1 calls)
     forces       :      0.18s CPU      0.19s WALL (       1 calls)
     stress       :      0.65s CPU      0.66s WALL (       1 calls)

     Called by init_run:
     wfcinit      :      0.50s CPU      0.51s WALL (       1 calls)
     potinit      :      0.08s CPU      0.08s WALL (       1 calls)
     hinit0       :      0.16s CPU      0.17s WALL (       1 calls)

     Called by electrons:
     c_bands      :     11.30s CPU     11.49s WALL (      15 calls)
     sum_band     :      2.39s CPU      2.51s WALL (      15 calls)
     v_of_rho     :      0.22s CPU      0.23s WALL (      16 calls)
     newd         :      0.30s CPU      0.37s WALL (      16 calls)
     PAW_pot      :      0.77s CPU      0.78s WALL (      16 calls)
     mix_rho      :      0.23s CPU      0.24s WALL (      15 calls)

     Called by c_bands:
     init_us_2    :      0.89s CPU      0.91s WALL (    2409 calls)
     init_us_2:cp :      0.88s CPU      0.90s WALL (    2409 calls)
     cegterg      :      8.57s CPU      8.71s WALL (    1095 calls)

     Called by *egterg:
     cdiaghg      :      0.11s CPU      0.12s WALL (    3161 calls)
     h_psi        :      8.20s CPU      8.33s WALL (    3234 calls)
     s_psi        :      0.16s CPU      0.16s WALL (    3234 calls)
     g_psi        :      0.05s CPU      0.05s WALL (    2066 calls)

     Called by h_psi:
     h_psi:calbec :      0.24s CPU      0.24s WALL (    3234 calls)
     vloc_psi     :      7.73s CPU      7.86s WALL (    3234 calls)
     add_vuspsi   :      0.17s CPU      0.17s WALL (    3234 calls)

     General routines
     calbec       :      0.34s CPU      0.35s WALL (    4694 calls)
     fft          :      0.10s CPU      0.11s WALL (     201 calls)
     ffts         :      0.13s CPU      0.13s WALL (     275 calls)
     fftw         :      8.19s CPU      8.33s WALL (   27736 calls)
 
     Parallel routines
 
     PWSCF        :     17.04s CPU     17.66s WALL

 
   This run was terminated on:  15:49:54  27Apr2026            

=------------------------------------------------------------------------------=
   JOB DONE.
=------------------------------------------------------------------------------=
