
     Program PWSCF v.7.1 starts on 27Apr2026 at 16:16: 1 

     This program is part of the open-source Quantum ESPRESSO suite
     for quantum simulation of materials; please cite
         "P. Giannozzi et al., J. Phys.:Condens. Matter 21 395502 (2009);
         "P. Giannozzi et al., J. Phys.:Condens. Matter 29 465901 (2017);
         "P. Giannozzi et al., J. Chem. Phys. 152 154105 (2020);
          URL http://www.quantum-espresso.org", 
     in publications or presentations arising from this work. More details at
     http://www.quantum-espresso.org/quote

     Parallel version (MPI & OpenMP), running on       4 processor cores
     Number of MPI processes:                 4
     Threads/MPI process:                     1

     MPI processes distributed on     1 nodes
     92028 MiB available memory on the printing compute node when the environment starts
 
     Reading input from AlN_scf.in

     Current dimensions of program PWSCF are:
     Max number of different atomic species (ntypx) = 10
     Max number of k-points (npk) = 150000
     Max angular momentum in pseudopotentials (lmaxx) =  4
     file Al.pbe-n-kjpaw_psl.1.0.0.UPF: wavefunction(s)  3S 3P renormalized
     file N.pbe-n-kjpaw_psl.1.0.0.UPF: wavefunction(s)  2S renormalized
     Message from routine set_cutoff:
     ecutrho < 4*ecutwfc, are you sure?
     Message from routine setup:
     using ibrav=0 with symmetry is DISCOURAGED, use correct ibrav instead
 
     K-points division:     npool     =       2
     R & G space division:  proc/nbgrp/npool/nimage =       2
     Subspace diagonalization in iterative solution of the eigenvalue problem:
     a serial algorithm will be used

 
     Parallelization info
     --------------------
     sticks:   dense  smooth     PW     G-vecs:    dense   smooth      PW
     Min        1626    1626    882                61436    61436   24383
     Max        1627    1627    883                61441    61441   24384
     Sum        3253    3253   1765               122877   122877   48767
 
     Using Slab Decomposition
 


     bravais-lattice index     =            0
     lattice parameter (alat)  =       5.4385  a.u.
     unit-cell volume          =     113.7417 (a.u.)^3
     number of atoms/cell      =            2
     number of atomic types    =            2
     number of electrons       =         8.00
     number of Kohn-Sham states=            4
     kinetic-energy cutoff     =     800.0000  Ry
     charge density cutoff     =    1600.0000  Ry
     scf convergence threshold =      1.0E-08
     mixing beta               =       0.2000
     number of iterations used =            8  local-TF  mixing
     Exchange-correlation= SLA  PW   PBX  PBC
                           (   1   4   3   4   0   0   0)

     celldm(1)=   5.438489  celldm(2)=   0.000000  celldm(3)=   0.000000
     celldm(4)=   0.000000  celldm(5)=   0.000000  celldm(6)=   0.000000

     crystal axes: (cart. coord. in units of alat)
               a(1) = (  -0.707107   0.000000   0.707107 )  
               a(2) = (   0.000000   0.707107   0.707107 )  
               a(3) = (  -0.707107   0.707107   0.000000 )  

     reciprocal axes: (cart. coord. in units 2 pi/alat)
               b(1) = ( -0.707107 -0.707107  0.707107 )  
               b(2) = (  0.707107  0.707107  0.707107 )  
               b(3) = ( -0.707107  0.707107 -0.707107 )  


     PseudoPot. # 1 for Al read from file:
     ../../pseudo/Al.pbe-n-kjpaw_psl.1.0.0.UPF
     MD5 check sum: 502b6b27b9c6270cab5dd1084b96fa6d
     Pseudo is Projector augmented-wave + core cor, Zval =  3.0
     Generated using &quot;atomic&quot; code by A. Dal Corso  v.6.3
     Shape of augmentation charge: PSQ
     Using radial grid of 1135 points,  6 beta functions with: 
                l(1) =   0
                l(2) =   0
                l(3) =   1
                l(4) =   1
                l(5) =   2
                l(6) =   2
     Q(r) pseudized with 0 coefficients 


     PseudoPot. # 2 for N  read from file:
     ../../pseudo/N.pbe-n-kjpaw_psl.1.0.0.UPF
     MD5 check sum: 14c48229446f9f2d411169a3abcbc3fa
     Pseudo is Projector augmented-wave + core cor, Zval =  5.0
     Generated using &quot;atomic&quot; code by A. Dal Corso  v.6.3
     Shape of augmentation charge: PSQ
     Using radial grid of 1085 points,  4 beta functions with: 
                l(1) =   0
                l(2) =   0
                l(3) =   1
                l(4) =   1
     Q(r) pseudized with 0 coefficients 


     atomic species   valence    mass     pseudopotential
        Al             3.00    26.98200     Al( 1.00)
        N              5.00    14.00700     N ( 1.00)

     48 Sym. Ops., with inversion, found



   Cartesian axes

     site n.     atom                  positions (alat units)
         1           Al  tau(   1) = (   0.0000000   0.0000000   0.0000000  )
         2           N   tau(   2) = (  -0.7071068   0.7071068   0.7071068  )

     number of k points=   145

     Number of k-points >= 100: set verbosity='high' to print them.

     Dense  grid:   122877 G-vectors     FFT dimensions: (  72,  72,  72)

     Estimated max dynamical RAM per process >     247.87 MB

     Estimated total dynamical RAM >     961.49 MB

     Initial potential from superposition of free atoms

     starting charge       7.9977, renormalised to       8.0000
     Starting wfcs are    8 randomized atomic wfcs
     Checking if some PAW data can be deallocated... 

     total cpu time spent up to now is        4.3 secs

     Self-consistent Calculation

     iteration #  1     ecut=   800.00 Ry     beta= 0.20
     Davidson diagonalization with overlap
     ethr =  1.00E-02,  avg # of iterations =  2.0

     total cpu time spent up to now is       11.3 secs

     total energy              =     -67.94580115 Ry
     estimated scf accuracy    <       0.49415024 Ry

     iteration #  2     ecut=   800.00 Ry     beta= 0.20
     Davidson diagonalization with overlap
     ethr =  6.18E-03,  avg # of iterations =  1.0

     total cpu time spent up to now is       16.9 secs

     total energy              =     -67.84758557 Ry
     estimated scf accuracy    <       0.25973296 Ry

     iteration #  3     ecut=   800.00 Ry     beta= 0.20
     Davidson diagonalization with overlap
     ethr =  3.25E-03,  avg # of iterations =  2.0

     total cpu time spent up to now is       24.0 secs

     total energy              =     -67.89521687 Ry
     estimated scf accuracy    <       0.01133795 Ry

     iteration #  4     ecut=   800.00 Ry     beta= 0.20
     Davidson diagonalization with overlap
     ethr =  1.42E-04,  avg # of iterations =  4.9

     total cpu time spent up to now is       33.7 secs

     total energy              =     -67.89268525 Ry
     estimated scf accuracy    <       0.02898724 Ry

     iteration #  5     ecut=   800.00 Ry     beta= 0.20
     Davidson diagonalization with overlap
     ethr =  1.42E-04,  avg # of iterations =  2.9

     total cpu time spent up to now is       41.7 secs

     total energy              =     -67.90352094 Ry
     estimated scf accuracy    <       0.00854990 Ry

     iteration #  6     ecut=   800.00 Ry     beta= 0.20
     Davidson diagonalization with overlap
     ethr =  1.07E-04,  avg # of iterations =  1.0

     total cpu time spent up to now is       47.4 secs

     total energy              =     -67.90368714 Ry
     estimated scf accuracy    <       0.00227546 Ry

     iteration #  7     ecut=   800.00 Ry     beta= 0.20
     Davidson diagonalization with overlap
     ethr =  2.84E-05,  avg # of iterations =  1.0

     total cpu time spent up to now is       53.1 secs

     total energy              =     -67.90261726 Ry
     estimated scf accuracy    <       0.00140942 Ry

     iteration #  8     ecut=   800.00 Ry     beta= 0.20
     Davidson diagonalization with overlap
     ethr =  1.76E-05,  avg # of iterations =  4.2

     total cpu time spent up to now is       61.9 secs

     total energy              =     -67.90327330 Ry
     estimated scf accuracy    <       0.00137752 Ry

     iteration #  9     ecut=   800.00 Ry     beta= 0.20
     Davidson diagonalization with overlap
     ethr =  1.72E-05,  avg # of iterations =  1.9

     total cpu time spent up to now is       68.7 secs

     total energy              =     -67.90340679 Ry
     estimated scf accuracy    <       0.00010266 Ry

     iteration # 10     ecut=   800.00 Ry     beta= 0.20
     Davidson diagonalization with overlap
     ethr =  1.28E-06,  avg # of iterations =  1.4

     total cpu time spent up to now is       74.8 secs

     total energy              =     -67.90339708 Ry
     estimated scf accuracy    <       0.00005385 Ry

     iteration # 11     ecut=   800.00 Ry     beta= 0.20
     Davidson diagonalization with overlap
     ethr =  6.73E-07,  avg # of iterations =  1.7

     total cpu time spent up to now is       81.3 secs

     total energy              =     -67.90339565 Ry
     estimated scf accuracy    <       0.00001110 Ry

     iteration # 12     ecut=   800.00 Ry     beta= 0.20
     Davidson diagonalization with overlap
     ethr =  1.39E-07,  avg # of iterations =  3.7

     total cpu time spent up to now is       90.0 secs

     total energy              =     -67.90340211 Ry
     estimated scf accuracy    <       0.00000228 Ry

     iteration # 13     ecut=   800.00 Ry     beta= 0.20
     Davidson diagonalization with overlap
     ethr =  2.85E-08,  avg # of iterations =  1.3

     total cpu time spent up to now is       96.1 secs

     total energy              =     -67.90340106 Ry
     estimated scf accuracy    <       0.00000165 Ry

     iteration # 14     ecut=   800.00 Ry     beta= 0.20
     Davidson diagonalization with overlap
     ethr =  2.06E-08,  avg # of iterations =  2.1

     total cpu time spent up to now is      103.4 secs

     total energy              =     -67.90340167 Ry
     estimated scf accuracy    <       0.00000038 Ry

     iteration # 15     ecut=   800.00 Ry     beta= 0.20
     Davidson diagonalization with overlap
     ethr =  4.80E-09,  avg # of iterations =  1.1

     total cpu time spent up to now is      109.2 secs

     total energy              =     -67.90340166 Ry
     estimated scf accuracy    <       0.00000010 Ry

     iteration # 16     ecut=   800.00 Ry     beta= 0.20
     Davidson diagonalization with overlap
     ethr =  1.20E-09,  avg # of iterations =  2.1

     total cpu time spent up to now is      116.5 secs

     End of self-consistent calculation

     Number of k-points >= 100: set verbosity='high' to print the bands.

     highest occupied level (ev):    10.9191

!    total energy              =     -67.90340167 Ry
     total all-electron energy =      -595.344980 Ry
     estimated scf accuracy    <          5.0E-09 Ry

     The total energy is the sum of the following terms:
     one-electron contribution =       3.33008026 Ry
     hartree contribution      =       4.55985149 Ry
     xc contribution           =      -8.64057667 Ry
     ewald contribution        =     -24.51862769 Ry
     one-center paw contrib.   =     -42.63412907 Ry

     convergence has been achieved in  16 iterations

     Forces acting on atoms (cartesian axes, Ry/au):

     atom    1 type  1   force =     0.00000000    0.00000000    0.00000000
     atom    2 type  2   force =     0.00000000   -0.00000000    0.00000000

     Total force =     0.000000     Total SCF correction =     0.000000


     Computing stress (Cartesian axis) and pressure

          total   stress  (Ry/bohr**3)                   (kbar)     P=        5.85
   0.00003980   0.00000000   0.00000000            5.85        0.00        0.00
   0.00000000   0.00003980  -0.00000000            0.00        5.85       -0.00
   0.00000000  -0.00000000   0.00003980            0.00       -0.00        5.85


     Writing all to output data dir ../output/AlN.save/
 
     init_run     :      3.86s CPU      4.12s WALL (       1 calls)
     electrons    :    110.57s CPU    112.16s WALL (       1 calls)
     forces       :      1.82s CPU      1.85s WALL (       1 calls)
     stress       :      6.18s CPU      6.28s WALL (       1 calls)

     Called by init_run:
     wfcinit      :      3.16s CPU      3.23s WALL (       1 calls)
     potinit      :      0.12s CPU      0.14s WALL (       1 calls)
     hinit0       :      0.30s CPU      0.43s WALL (       1 calls)

     Called by electrons:
     c_bands      :     90.34s CPU     90.97s WALL (      16 calls)
     sum_band     :     15.98s CPU     16.42s WALL (      16 calls)
     v_of_rho     :      1.11s CPU      1.20s WALL (      17 calls)
     newd         :      1.20s CPU      1.54s WALL (      17 calls)
     PAW_pot      :      0.88s CPU      0.92s WALL (      17 calls)
     mix_rho      :      1.19s CPU      1.27s WALL (      16 calls)

     Called by c_bands:
     init_us_2    :     10.33s CPU     10.40s WALL (    2555 calls)
     init_us_2:cp :     10.32s CPU     10.39s WALL (    2555 calls)
     cegterg      :     60.04s CPU     60.53s WALL (    1168 calls)

     Called by *egterg:
     cdiaghg      :      0.25s CPU      0.26s WALL (    3655 calls)
     h_psi        :     49.12s CPU     49.52s WALL (    3728 calls)
     s_psi        :      3.70s CPU      3.73s WALL (    3728 calls)
     g_psi        :      0.59s CPU      0.60s WALL (    2487 calls)

     Called by h_psi:
     h_psi:calbec :      4.00s CPU      4.04s WALL (    3728 calls)
     vloc_psi     :     40.43s CPU     40.76s WALL (    3728 calls)
     add_vuspsi   :      4.01s CPU      4.04s WALL (    3728 calls)

     General routines
     calbec       :      5.78s CPU      5.83s WALL (    5261 calls)
     fft          :      0.48s CPU      0.62s WALL (     212 calls)
     ffts         :      0.57s CPU      0.57s WALL (     297 calls)
     fftw         :     38.01s CPU     38.32s WALL (   30814 calls)
 
     Parallel routines
 
     PWSCF        :   2m 2.70s CPU   2m 5.21s WALL

 
   This run was terminated on:  16:18: 6  27Apr2026            

=------------------------------------------------------------------------------=
   JOB DONE.
=------------------------------------------------------------------------------=
