
     Program PWSCF v.7.1 starts on 27Apr2026 at 16:15:14 

     This program is part of the open-source Quantum ESPRESSO suite
     for quantum simulation of materials; please cite
         "P. Giannozzi et al., J. Phys.:Condens. Matter 21 395502 (2009);
         "P. Giannozzi et al., J. Phys.:Condens. Matter 29 465901 (2017);
         "P. Giannozzi et al., J. Chem. Phys. 152 154105 (2020);
          URL http://www.quantum-espresso.org", 
     in publications or presentations arising from this work. More details at
     http://www.quantum-espresso.org/quote

     Parallel version (MPI & OpenMP), running on       4 processor cores
     Number of MPI processes:                 4
     Threads/MPI process:                     1

     MPI processes distributed on     1 nodes
     92037 MiB available memory on the printing compute node when the environment starts
 
     Reading input from AlN_scf.in

     Current dimensions of program PWSCF are:
     Max number of different atomic species (ntypx) = 10
     Max number of k-points (npk) = 150000
     Max angular momentum in pseudopotentials (lmaxx) =  4
     file Al.pbe-n-kjpaw_psl.1.0.0.UPF: wavefunction(s)  3S 3P renormalized
     file N.pbe-n-kjpaw_psl.1.0.0.UPF: wavefunction(s)  2S renormalized
     Message from routine set_cutoff:
     ecutrho < 4*ecutwfc, are you sure?
     Message from routine setup:
     using ibrav=0 with symmetry is DISCOURAGED, use correct ibrav instead
 
     K-points division:     npool     =       2
     R & G space division:  proc/nbgrp/npool/nimage =       2
     Subspace diagonalization in iterative solution of the eigenvalue problem:
     a serial algorithm will be used

 
     Parallelization info
     --------------------
     sticks:   dense  smooth     PW     G-vecs:    dense   smooth      PW
     Min         819     819    456                21799    21799    9025
     Max         820     820    457                21800    21800    9028
     Sum        1639    1639    913                43599    43599   18053
 
     Using Slab Decomposition
 


     bravais-lattice index     =            0
     lattice parameter (alat)  =       5.4385  a.u.
     unit-cell volume          =     113.7417 (a.u.)^3
     number of atoms/cell      =            2
     number of atomic types    =            2
     number of electrons       =         8.00
     number of Kohn-Sham states=            4
     kinetic-energy cutoff     =     400.0000  Ry
     charge density cutoff     =     800.0000  Ry
     scf convergence threshold =      1.0E-08
     mixing beta               =       0.2000
     number of iterations used =            8  local-TF  mixing
     Exchange-correlation= SLA  PW   PBX  PBC
                           (   1   4   3   4   0   0   0)

     celldm(1)=   5.438489  celldm(2)=   0.000000  celldm(3)=   0.000000
     celldm(4)=   0.000000  celldm(5)=   0.000000  celldm(6)=   0.000000

     crystal axes: (cart. coord. in units of alat)
               a(1) = (  -0.707107   0.000000   0.707107 )  
               a(2) = (   0.000000   0.707107   0.707107 )  
               a(3) = (  -0.707107   0.707107   0.000000 )  

     reciprocal axes: (cart. coord. in units 2 pi/alat)
               b(1) = ( -0.707107 -0.707107  0.707107 )  
               b(2) = (  0.707107  0.707107  0.707107 )  
               b(3) = ( -0.707107  0.707107 -0.707107 )  


     PseudoPot. # 1 for Al read from file:
     ../../pseudo/Al.pbe-n-kjpaw_psl.1.0.0.UPF
     MD5 check sum: 502b6b27b9c6270cab5dd1084b96fa6d
     Pseudo is Projector augmented-wave + core cor, Zval =  3.0
     Generated using &quot;atomic&quot; code by A. Dal Corso  v.6.3
     Shape of augmentation charge: PSQ
     Using radial grid of 1135 points,  6 beta functions with: 
                l(1) =   0
                l(2) =   0
                l(3) =   1
                l(4) =   1
                l(5) =   2
                l(6) =   2
     Q(r) pseudized with 0 coefficients 


     PseudoPot. # 2 for N  read from file:
     ../../pseudo/N.pbe-n-kjpaw_psl.1.0.0.UPF
     MD5 check sum: 14c48229446f9f2d411169a3abcbc3fa
     Pseudo is Projector augmented-wave + core cor, Zval =  5.0
     Generated using &quot;atomic&quot; code by A. Dal Corso  v.6.3
     Shape of augmentation charge: PSQ
     Using radial grid of 1085 points,  4 beta functions with: 
                l(1) =   0
                l(2) =   0
                l(3) =   1
                l(4) =   1
     Q(r) pseudized with 0 coefficients 


     atomic species   valence    mass     pseudopotential
        Al             3.00    26.98200     Al( 1.00)
        N              5.00    14.00700     N ( 1.00)

     48 Sym. Ops., with inversion, found



   Cartesian axes

     site n.     atom                  positions (alat units)
         1           Al  tau(   1) = (   0.0000000   0.0000000   0.0000000  )
         2           N   tau(   2) = (  -0.7071068   0.7071068   0.7071068  )

     number of k points=   145

     Number of k-points >= 100: set verbosity='high' to print them.

     Dense  grid:    43599 G-vectors     FFT dimensions: (  50,  50,  50)

     Estimated max dynamical RAM per process >      89.82 MB

     Estimated total dynamical RAM >     348.64 MB

     Initial potential from superposition of free atoms

     starting charge       7.9977, renormalised to       8.0000
     Starting wfcs are    8 randomized atomic wfcs
     Checking if some PAW data can be deallocated... 

     total cpu time spent up to now is        1.6 secs

     Self-consistent Calculation

     iteration #  1     ecut=   400.00 Ry     beta= 0.20
     Davidson diagonalization with overlap
     ethr =  1.00E-02,  avg # of iterations =  1.9

     total cpu time spent up to now is        3.8 secs

     total energy              =     -67.95608066 Ry
     estimated scf accuracy    <       0.44596904 Ry

     iteration #  2     ecut=   400.00 Ry     beta= 0.20
     Davidson diagonalization with overlap
     ethr =  5.57E-03,  avg # of iterations =  1.0

     total cpu time spent up to now is        5.7 secs

     total energy              =     -67.83431044 Ry
     estimated scf accuracy    <       0.26251427 Ry

     iteration #  3     ecut=   400.00 Ry     beta= 0.20
     Davidson diagonalization with overlap
     ethr =  3.28E-03,  avg # of iterations =  2.0

     total cpu time spent up to now is        8.1 secs

     total energy              =     -67.90129500 Ry
     estimated scf accuracy    <       0.00745408 Ry

     iteration #  4     ecut=   400.00 Ry     beta= 0.20
     Davidson diagonalization with overlap
     ethr =  9.32E-05,  avg # of iterations =  2.7

     total cpu time spent up to now is       10.7 secs

     total energy              =     -67.90352763 Ry
     estimated scf accuracy    <       0.00471685 Ry

     iteration #  5     ecut=   400.00 Ry     beta= 0.20
     Davidson diagonalization with overlap
     ethr =  5.90E-05,  avg # of iterations =  1.4

     total cpu time spent up to now is       12.7 secs

     total energy              =     -67.90317073 Ry
     estimated scf accuracy    <       0.00162588 Ry

     iteration #  6     ecut=   400.00 Ry     beta= 0.20
     Davidson diagonalization with overlap
     ethr =  2.03E-05,  avg # of iterations =  2.6

     total cpu time spent up to now is       15.1 secs

     total energy              =     -67.90344715 Ry
     estimated scf accuracy    <       0.00018901 Ry

     iteration #  7     ecut=   400.00 Ry     beta= 0.20
     Davidson diagonalization with overlap
     ethr =  2.36E-06,  avg # of iterations =  2.1

     total cpu time spent up to now is       17.4 secs

     total energy              =     -67.90336753 Ry
     estimated scf accuracy    <       0.00020875 Ry

     iteration #  8     ecut=   400.00 Ry     beta= 0.20
     Davidson diagonalization with overlap
     ethr =  2.36E-06,  avg # of iterations =  2.1

     total cpu time spent up to now is       19.8 secs

     total energy              =     -67.90339891 Ry
     estimated scf accuracy    <       0.00000847 Ry

     iteration #  9     ecut=   400.00 Ry     beta= 0.20
     Davidson diagonalization with overlap
     ethr =  1.06E-07,  avg # of iterations =  2.6

     total cpu time spent up to now is       22.4 secs

     total energy              =     -67.90339996 Ry
     estimated scf accuracy    <       0.00000198 Ry

     iteration # 10     ecut=   400.00 Ry     beta= 0.20
     Davidson diagonalization with overlap
     ethr =  2.48E-08,  avg # of iterations =  2.6

     total cpu time spent up to now is       24.9 secs

     total energy              =     -67.90340084 Ry
     estimated scf accuracy    <       0.00000052 Ry

     iteration # 11     ecut=   400.00 Ry     beta= 0.20
     Davidson diagonalization with overlap
     ethr =  6.54E-09,  avg # of iterations =  1.2

     total cpu time spent up to now is       27.0 secs

     total energy              =     -67.90340087 Ry
     estimated scf accuracy    <       0.00000014 Ry

     iteration # 12     ecut=   400.00 Ry     beta= 0.20
     Davidson diagonalization with overlap
     ethr =  1.70E-09,  avg # of iterations =  1.0

     total cpu time spent up to now is       28.9 secs

     total energy              =     -67.90340085 Ry
     estimated scf accuracy    <       0.00000014 Ry

     iteration # 13     ecut=   400.00 Ry     beta= 0.20
     Davidson diagonalization with overlap
     ethr =  1.70E-09,  avg # of iterations =  1.0

     total cpu time spent up to now is       30.9 secs

     total energy              =     -67.90340081 Ry
     estimated scf accuracy    <       0.00000009 Ry

     iteration # 14     ecut=   400.00 Ry     beta= 0.20
     Davidson diagonalization with overlap
     ethr =  1.09E-09,  avg # of iterations =  2.1

     total cpu time spent up to now is       33.2 secs

     End of self-consistent calculation

     Number of k-points >= 100: set verbosity='high' to print the bands.

     highest occupied level (ev):    10.9188

!    total energy              =     -67.90340082 Ry
     total all-electron energy =      -595.344979 Ry
     estimated scf accuracy    <          2.6E-09 Ry

     The total energy is the sum of the following terms:
     one-electron contribution =       3.32989441 Ry
     hartree contribution      =       4.56008859 Ry
     xc contribution           =      -8.64063555 Ry
     ewald contribution        =     -24.51862769 Ry
     one-center paw contrib.   =     -42.63412059 Ry

     convergence has been achieved in  14 iterations

     Forces acting on atoms (cartesian axes, Ry/au):

     atom    1 type  1   force =    -0.00000000    0.00000000    0.00000000
     atom    2 type  2   force =    -0.00000000    0.00000000   -0.00000000

     Total force =     0.000000     Total SCF correction =     0.000000


     Computing stress (Cartesian axis) and pressure

          total   stress  (Ry/bohr**3)                   (kbar)     P=        6.02
   0.00004095   0.00000000   0.00000000            6.02        0.00        0.00
   0.00000000   0.00004095  -0.00000000            0.00        6.02       -0.00
   0.00000000  -0.00000000   0.00004095            0.00       -0.00        6.02


     Writing all to output data dir ../output/AlN.save/
 
     init_run     :      1.43s CPU      1.49s WALL (       1 calls)
     electrons    :     30.93s CPU     31.72s WALL (       1 calls)
     forces       :      0.60s CPU      0.61s WALL (       1 calls)
     stress       :      1.99s CPU      2.02s WALL (       1 calls)

     Called by init_run:
     wfcinit      :      1.05s CPU      1.07s WALL (       1 calls)
     potinit      :      0.08s CPU      0.09s WALL (       1 calls)
     hinit0       :      0.21s CPU      0.21s WALL (       1 calls)

     Called by electrons:
     c_bands      :     24.82s CPU     25.18s WALL (      14 calls)
     sum_band     :      4.50s CPU      4.68s WALL (      14 calls)
     v_of_rho     :      0.28s CPU      0.29s WALL (      15 calls)
     newd         :      0.37s CPU      0.48s WALL (      15 calls)
     PAW_pot      :      0.73s CPU      0.74s WALL (      15 calls)
     mix_rho      :      0.30s CPU      0.33s WALL (      14 calls)

     Called by c_bands:
     init_us_2    :      3.18s CPU      3.24s WALL (    2263 calls)
     init_us_2:cp :      3.17s CPU      3.23s WALL (    2263 calls)
     cegterg      :     15.57s CPU     15.78s WALL (    1022 calls)

     Called by *egterg:
     cdiaghg      :      0.17s CPU      0.17s WALL (    2918 calls)
     h_psi        :     13.33s CPU     13.51s WALL (    2991 calls)
     s_psi        :      0.81s CPU      0.82s WALL (    2991 calls)
     g_psi        :      0.18s CPU      0.18s WALL (    1896 calls)

     Called by h_psi:
     h_psi:calbec :      1.02s CPU      1.03s WALL (    2991 calls)
     vloc_psi     :     11.21s CPU     11.35s WALL (    2991 calls)
     add_vuspsi   :      0.92s CPU      0.94s WALL (    2991 calls)

     General routines
     calbec       :      1.46s CPU      1.48s WALL (    4378 calls)
     fft          :      0.12s CPU      0.13s WALL (     190 calls)
     ffts         :      0.17s CPU      0.17s WALL (     259 calls)
     fftw         :     11.17s CPU     11.31s WALL (   26044 calls)
 
     Parallel routines
 
     PWSCF        :     35.13s CPU     36.46s WALL

 
   This run was terminated on:  16:15:50  27Apr2026            

=------------------------------------------------------------------------------=
   JOB DONE.
=------------------------------------------------------------------------------=
