
     Program PWSCF v.7.1 starts on 27Apr2026 at 15:52:40 

     This program is part of the open-source Quantum ESPRESSO suite
     for quantum simulation of materials; please cite
         "P. Giannozzi et al., J. Phys.:Condens. Matter 21 395502 (2009);
         "P. Giannozzi et al., J. Phys.:Condens. Matter 29 465901 (2017);
         "P. Giannozzi et al., J. Chem. Phys. 152 154105 (2020);
          URL http://www.quantum-espresso.org", 
     in publications or presentations arising from this work. More details at
     http://www.quantum-espresso.org/quote

     Parallel version (MPI & OpenMP), running on       4 processor cores
     Number of MPI processes:                 4
     Threads/MPI process:                     1

     MPI processes distributed on     1 nodes
     92148 MiB available memory on the printing compute node when the environment starts
 
     Reading input from AlN_scf.in

     Current dimensions of program PWSCF are:
     Max number of different atomic species (ntypx) = 10
     Max number of k-points (npk) = 150000
     Max angular momentum in pseudopotentials (lmaxx) =  4
     file Al.pbe-n-kjpaw_psl.1.0.0.UPF: wavefunction(s)  3S 3P renormalized
     file N.pbe-n-kjpaw_psl.1.0.0.UPF: wavefunction(s)  2S renormalized
     Message from routine setup:
     using ibrav=0 with symmetry is DISCOURAGED, use correct ibrav instead
 
     K-points division:     npool     =       2
     R & G space division:  proc/nbgrp/npool/nimage =       2
     Subspace diagonalization in iterative solution of the eigenvalue problem:
     a serial algorithm will be used

 
     Parallelization info
     --------------------
     sticks:   dense  smooth     PW     G-vecs:    dense   smooth      PW
     Min         291     291     93                 4544     4544     819
     Max         292     292     94                 4545     4545     820
     Sum         583     583    187                 9089     9089    1639
 
     Using Slab Decomposition
 


     bravais-lattice index     =            0
     lattice parameter (alat)  =       5.4385  a.u.
     unit-cell volume          =     113.7417 (a.u.)^3
     number of atoms/cell      =            2
     number of atomic types    =            2
     number of electrons       =         8.00
     number of Kohn-Sham states=            4
     kinetic-energy cutoff     =      70.0000  Ry
     charge density cutoff     =     280.0000  Ry
     scf convergence threshold =      1.0E-08
     mixing beta               =       0.2000
     number of iterations used =            8  local-TF  mixing
     Exchange-correlation= SLA  PW   PBX  PBC
                           (   1   4   3   4   0   0   0)

     celldm(1)=   5.438489  celldm(2)=   0.000000  celldm(3)=   0.000000
     celldm(4)=   0.000000  celldm(5)=   0.000000  celldm(6)=   0.000000

     crystal axes: (cart. coord. in units of alat)
               a(1) = (  -0.707107   0.000000   0.707107 )  
               a(2) = (   0.000000   0.707107   0.707107 )  
               a(3) = (  -0.707107   0.707107   0.000000 )  

     reciprocal axes: (cart. coord. in units 2 pi/alat)
               b(1) = ( -0.707107 -0.707107  0.707107 )  
               b(2) = (  0.707107  0.707107  0.707107 )  
               b(3) = ( -0.707107  0.707107 -0.707107 )  


     PseudoPot. # 1 for Al read from file:
     ../../pseudo/Al.pbe-n-kjpaw_psl.1.0.0.UPF
     MD5 check sum: 502b6b27b9c6270cab5dd1084b96fa6d
     Pseudo is Projector augmented-wave + core cor, Zval =  3.0
     Generated using &quot;atomic&quot; code by A. Dal Corso  v.6.3
     Shape of augmentation charge: PSQ
     Using radial grid of 1135 points,  6 beta functions with: 
                l(1) =   0
                l(2) =   0
                l(3) =   1
                l(4) =   1
                l(5) =   2
                l(6) =   2
     Q(r) pseudized with 0 coefficients 


     PseudoPot. # 2 for N  read from file:
     ../../pseudo/N.pbe-n-kjpaw_psl.1.0.0.UPF
     MD5 check sum: 14c48229446f9f2d411169a3abcbc3fa
     Pseudo is Projector augmented-wave + core cor, Zval =  5.0
     Generated using &quot;atomic&quot; code by A. Dal Corso  v.6.3
     Shape of augmentation charge: PSQ
     Using radial grid of 1085 points,  4 beta functions with: 
                l(1) =   0
                l(2) =   0
                l(3) =   1
                l(4) =   1
     Q(r) pseudized with 0 coefficients 


     atomic species   valence    mass     pseudopotential
        Al             3.00    26.98200     Al( 1.00)
        N              5.00    14.00700     N ( 1.00)

     48 Sym. Ops., with inversion, found



   Cartesian axes

     site n.     atom                  positions (alat units)
         1           Al  tau(   1) = (   0.0000000   0.0000000   0.0000000  )
         2           N   tau(   2) = (  -0.7071068   0.7071068   0.7071068  )

     number of k points=   145

     Number of k-points >= 100: set verbosity='high' to print them.

     Dense  grid:     9089 G-vectors     FFT dimensions: (  30,  30,  30)

     Estimated max dynamical RAM per process >      15.39 MB

     Estimated total dynamical RAM >      59.34 MB

     Initial potential from superposition of free atoms

     starting charge       7.9977, renormalised to       8.0000
     Starting wfcs are    8 randomized atomic wfcs
     Checking if some PAW data can be deallocated... 

     total cpu time spent up to now is        0.6 secs

     Self-consistent Calculation

     iteration #  1     ecut=    70.00 Ry     beta= 0.20
     Davidson diagonalization with overlap
     ethr =  1.00E-02,  avg # of iterations =  1.9

     total cpu time spent up to now is        0.9 secs

     total energy              =     -67.95678872 Ry
     estimated scf accuracy    <       0.44082493 Ry

     iteration #  2     ecut=    70.00 Ry     beta= 0.20
     Davidson diagonalization with overlap
     ethr =  5.51E-03,  avg # of iterations =  1.0

     total cpu time spent up to now is        1.2 secs

     total energy              =     -67.83326093 Ry
     estimated scf accuracy    <       0.26186100 Ry

     iteration #  3     ecut=    70.00 Ry     beta= 0.20
     Davidson diagonalization with overlap
     ethr =  3.27E-03,  avg # of iterations =  2.0

     total cpu time spent up to now is        1.6 secs

     total energy              =     -67.90105265 Ry
     estimated scf accuracy    <       0.00786523 Ry

     iteration #  4     ecut=    70.00 Ry     beta= 0.20
     Davidson diagonalization with overlap
     ethr =  9.83E-05,  avg # of iterations =  2.3

     total cpu time spent up to now is        1.9 secs

     total energy              =     -67.90320465 Ry
     estimated scf accuracy    <       0.00717241 Ry

     iteration #  5     ecut=    70.00 Ry     beta= 0.20
     Davidson diagonalization with overlap
     ethr =  8.97E-05,  avg # of iterations =  1.2

     total cpu time spent up to now is        2.2 secs

     total energy              =     -67.90297606 Ry
     estimated scf accuracy    <       0.00219427 Ry

     iteration #  6     ecut=    70.00 Ry     beta= 0.20
     Davidson diagonalization with overlap
     ethr =  2.74E-05,  avg # of iterations =  2.1

     total cpu time spent up to now is        2.6 secs

     total energy              =     -67.90275601 Ry
     estimated scf accuracy    <       0.00058235 Ry

     iteration #  7     ecut=    70.00 Ry     beta= 0.20
     Davidson diagonalization with overlap
     ethr =  7.28E-06,  avg # of iterations =  3.4

     total cpu time spent up to now is        3.0 secs

     total energy              =     -67.90298816 Ry
     estimated scf accuracy    <       0.00037524 Ry

     iteration #  8     ecut=    70.00 Ry     beta= 0.20
     Davidson diagonalization with overlap
     ethr =  4.69E-06,  avg # of iterations =  2.0

     total cpu time spent up to now is        3.3 secs

     total energy              =     -67.90310293 Ry
     estimated scf accuracy    <       0.00005280 Ry

     iteration #  9     ecut=    70.00 Ry     beta= 0.20
     Davidson diagonalization with overlap
     ethr =  6.60E-07,  avg # of iterations =  2.0

     total cpu time spent up to now is        3.7 secs

     total energy              =     -67.90311165 Ry
     estimated scf accuracy    <       0.00000143 Ry

     iteration # 10     ecut=    70.00 Ry     beta= 0.20
     Davidson diagonalization with overlap
     ethr =  1.78E-08,  avg # of iterations =  2.2

     total cpu time spent up to now is        4.1 secs

     total energy              =     -67.90311223 Ry
     estimated scf accuracy    <       0.00000316 Ry

     iteration # 11     ecut=    70.00 Ry     beta= 0.20
     Davidson diagonalization with overlap
     ethr =  1.78E-08,  avg # of iterations =  1.0

     total cpu time spent up to now is        4.3 secs

     total energy              =     -67.90311211 Ry
     estimated scf accuracy    <       0.00000385 Ry

     iteration # 12     ecut=    70.00 Ry     beta= 0.20
     Davidson diagonalization with overlap
     ethr =  1.78E-08,  avg # of iterations =  1.0

     total cpu time spent up to now is        4.6 secs

     total energy              =     -67.90311200 Ry
     estimated scf accuracy    <       0.00000354 Ry

     iteration # 13     ecut=    70.00 Ry     beta= 0.20
     Davidson diagonalization with overlap
     ethr =  1.78E-08,  avg # of iterations =  1.0

     total cpu time spent up to now is        4.9 secs

     total energy              =     -67.90311041 Ry
     estimated scf accuracy    <       0.00000320 Ry

     iteration # 14     ecut=    70.00 Ry     beta= 0.20
     Davidson diagonalization with overlap
     ethr =  1.78E-08,  avg # of iterations =  2.1

     total cpu time spent up to now is        5.3 secs

     total energy              =     -67.90311101 Ry
     estimated scf accuracy    <       0.00000002 Ry

     iteration # 15     ecut=    70.00 Ry     beta= 0.20
     Davidson diagonalization with overlap
     ethr =  3.12E-10,  avg # of iterations =  4.6

     total cpu time spent up to now is        5.8 secs

     total energy              =     -67.90311113 Ry
     estimated scf accuracy    <       0.00000039 Ry

     iteration # 16     ecut=    70.00 Ry     beta= 0.20
     Davidson diagonalization with overlap
     ethr =  3.12E-10,  avg # of iterations =  1.0

     total cpu time spent up to now is        6.1 secs

     total energy              =     -67.90311096 Ry
     estimated scf accuracy    <       0.00000037 Ry

     iteration # 17     ecut=    70.00 Ry     beta= 0.20
     Davidson diagonalization with overlap
     ethr =  3.12E-10,  avg # of iterations =  3.0

     total cpu time spent up to now is        6.5 secs

     End of self-consistent calculation

     Number of k-points >= 100: set verbosity='high' to print the bands.

     highest occupied level (ev):    10.9194

!    total energy              =     -67.90311102 Ry
     total all-electron energy =      -595.344689 Ry
     estimated scf accuracy    <          1.4E-09 Ry

     The total energy is the sum of the following terms:
     one-electron contribution =       3.33044557 Ry
     hartree contribution      =       4.55970110 Ry
     xc contribution           =      -8.64058402 Ry
     ewald contribution        =     -24.51862769 Ry
     one-center paw contrib.   =     -42.63404598 Ry

     convergence has been achieved in  17 iterations

     Forces acting on atoms (cartesian axes, Ry/au):

     atom    1 type  1   force =    -0.00000000   -0.00000000    0.00000000
     atom    2 type  2   force =     0.00000000    0.00000000   -0.00000000

     Total force =     0.000000     Total SCF correction =     0.000000


     Computing stress (Cartesian axis) and pressure

          total   stress  (Ry/bohr**3)                   (kbar)     P=        4.16
   0.00002829   0.00000000  -0.00000000            4.16        0.00       -0.00
  -0.00000000   0.00002829  -0.00000000           -0.00        4.16       -0.00
   0.00000000   0.00000000   0.00002829            0.00        0.00        4.16


     Writing all to output data dir ../output/AlN.save/
 
     init_run     :      0.35s CPU      0.39s WALL (       1 calls)
     electrons    :      5.71s CPU      5.94s WALL (       1 calls)
     forces       :      0.06s CPU      0.06s WALL (       1 calls)
     stress       :      0.20s CPU      0.20s WALL (       1 calls)

     Called by init_run:
     wfcinit      :      0.13s CPU      0.14s WALL (       1 calls)
     potinit      :      0.08s CPU      0.09s WALL (       1 calls)
     hinit0       :      0.12s CPU      0.12s WALL (       1 calls)

     Called by electrons:
     c_bands      :      3.90s CPU      4.07s WALL (      17 calls)
     sum_band     :      0.74s CPU      0.78s WALL (      17 calls)
     v_of_rho     :      0.07s CPU      0.07s WALL (      18 calls)
     newd         :      0.10s CPU      0.11s WALL (      18 calls)
     PAW_pot      :      0.87s CPU      0.87s WALL (      18 calls)
     mix_rho      :      0.07s CPU      0.08s WALL (      17 calls)

     Called by c_bands:
     init_us_2    :      0.30s CPU      0.32s WALL (    2701 calls)
     init_us_2:cp :      0.30s CPU      0.31s WALL (    2701 calls)
     cegterg      :      2.93s CPU      3.04s WALL (    1241 calls)

     Called by *egterg:
     cdiaghg      :      0.11s CPU      0.12s WALL (    3650 calls)
     h_psi        :      2.59s CPU      2.69s WALL (    3723 calls)
     s_psi        :      0.05s CPU      0.06s WALL (    3723 calls)
     g_psi        :      0.02s CPU      0.02s WALL (    2409 calls)

     Called by h_psi:
     h_psi:calbec :      0.10s CPU      0.11s WALL (    3723 calls)
     vloc_psi     :      2.39s CPU      2.48s WALL (    3723 calls)
     add_vuspsi   :      0.06s CPU      0.06s WALL (    3723 calls)

     General routines
     calbec       :      0.13s CPU      0.13s WALL (    5329 calls)
     fft          :      0.03s CPU      0.03s WALL (     223 calls)
     ffts         :      0.04s CPU      0.04s WALL (     313 calls)
     fftw         :      2.46s CPU      2.56s WALL (   32704 calls)
 
     Parallel routines
 
     PWSCF        :      6.48s CPU      7.19s WALL

 
   This run was terminated on:  15:52:47  27Apr2026            

=------------------------------------------------------------------------------=
   JOB DONE.
=------------------------------------------------------------------------------=
