
     Program PWSCF v.7.1 starts on 11May2026 at 16:53: 6 

     This program is part of the open-source Quantum ESPRESSO suite
     for quantum simulation of materials; please cite
         "P. Giannozzi et al., J. Phys.:Condens. Matter 21 395502 (2009);
         "P. Giannozzi et al., J. Phys.:Condens. Matter 29 465901 (2017);
         "P. Giannozzi et al., J. Chem. Phys. 152 154105 (2020);
          URL http://www.quantum-espresso.org", 
     in publications or presentations arising from this work. More details at
     http://www.quantum-espresso.org/quote

     Parallel version (MPI & OpenMP), running on      32 processor cores
     Number of MPI processes:                32
     Threads/MPI process:                     1

     MPI processes distributed on     1 nodes
     91215 MiB available memory on the printing compute node when the environment starts
 
     Reading input from TiAlN_x05finalrelaxedresult835155.in

     Current dimensions of program PWSCF are:
     Max number of different atomic species (ntypx) = 10
     Max number of k-points (npk) = 150000
     Max angular momentum in pseudopotentials (lmaxx) =  4
     file Al.pbe-n-kjpaw_psl.1.0.0.UPF: wavefunction(s)  3S 3P renormalized
     file N.pbe-n-kjpaw_psl.1.0.0.UPF: wavefunction(s)  2S renormalized
     file Ti.pbe-spn-kjpaw_psl.1.0.0.UPF: wavefunction(s)  3S 3P 3D renormalized
 
     K-points division:     npool     =       4
     R & G space division:  proc/nbgrp/npool/nimage =       8
     Subspace diagonalization in iterative solution of the eigenvalue problem:
     one sub-group per band group will be used
     scalapack distributed-memory algorithm (size of sub-group:  2*  2 procs)

 
     Parallelization info
     --------------------
     sticks:   dense  smooth     PW     G-vecs:    dense   smooth      PW
     Min         593     593    163                30853    30853    4379
     Max         595     595    164                30854    30854    4380
     Sum        4749    4749   1305               246825   246825   35033
 
     Using Slab Decomposition
 


     bravais-lattice index     =            0
     lattice parameter (alat)  =      15.7821  a.u.
     unit-cell volume          =    3930.9531 (a.u.)^3
     number of atoms/cell      =           64
     number of atomic types    =            3
     number of electrons       =       400.00
     number of Kohn-Sham states=          240
     kinetic-energy cutoff     =      60.0000  Ry
     charge density cutoff     =     240.0000  Ry
     scf convergence threshold =      1.0E-08
     mixing beta               =       0.2000
     number of iterations used =            8  local-TF  mixing
     Exchange-correlation= SLA  PW   PBX  PBC
                           (   1   4   3   4   0   0   0)

     celldm(1)=  15.782142  celldm(2)=   0.000000  celldm(3)=   0.000000
     celldm(4)=   0.000000  celldm(5)=   0.000000  celldm(6)=   0.000000

     crystal axes: (cart. coord. in units of alat)
               a(1) = (   1.000000   0.000000   0.000000 )  
               a(2) = (   0.000000   1.000000   0.000000 )  
               a(3) = (   0.000000   0.000000   1.000000 )  

     reciprocal axes: (cart. coord. in units 2 pi/alat)
               b(1) = (  1.000000  0.000000  0.000000 )  
               b(2) = (  0.000000  1.000000  0.000000 )  
               b(3) = (  0.000000  0.000000  1.000000 )  


     PseudoPot. # 1 for Al read from file:
     ../../../pseudo/Al.pbe-n-kjpaw_psl.1.0.0.UPF
     MD5 check sum: 502b6b27b9c6270cab5dd1084b96fa6d
     Pseudo is Projector augmented-wave + core cor, Zval =  3.0
     Generated using &quot;atomic&quot; code by A. Dal Corso  v.6.3
     Shape of augmentation charge: PSQ
     Using radial grid of 1135 points,  6 beta functions with: 
                l(1) =   0
                l(2) =   0
                l(3) =   1
                l(4) =   1
                l(5) =   2
                l(6) =   2
     Q(r) pseudized with 0 coefficients 


     PseudoPot. # 2 for N  read from file:
     ../../../pseudo/N.pbe-n-kjpaw_psl.1.0.0.UPF
     MD5 check sum: 14c48229446f9f2d411169a3abcbc3fa
     Pseudo is Projector augmented-wave + core cor, Zval =  5.0
     Generated using &quot;atomic&quot; code by A. Dal Corso  v.6.3
     Shape of augmentation charge: PSQ
     Using radial grid of 1085 points,  4 beta functions with: 
                l(1) =   0
                l(2) =   0
                l(3) =   1
                l(4) =   1
     Q(r) pseudized with 0 coefficients 


     PseudoPot. # 3 for Ti read from file:
     ../../../pseudo/Ti.pbe-spn-kjpaw_psl.1.0.0.UPF
     MD5 check sum: 01f69b0d8ba4438b2e03ac6ea4af1c0b
     Pseudo is Projector augmented-wave + core cor, Zval = 12.0
     Generated using &quot;atomic&quot; code by A. Dal Corso  v.6.2.2
     Shape of augmentation charge: PSQ
     Using radial grid of 1177 points,  6 beta functions with: 
                l(1) =   0
                l(2) =   0
                l(3) =   1
                l(4) =   1
                l(5) =   2
                l(6) =   2
     Q(r) pseudized with 0 coefficients 


     atomic species   valence    mass     pseudopotential
        Al             3.00    26.98200     Al( 1.00)
        N              5.00    14.00700     N ( 1.00)
        Ti            12.00    47.86700     Ti( 1.00)

     No symmetry found



   Cartesian axes

     site n.     atom                  positions (alat units)
         1           Al  tau(   1) = (  -0.0045779  -0.0011991   0.0041159  )
         2           N   tau(   2) = (   0.2450222  -0.0009209   0.0018259  )
         3           Al  tau(   3) = (  -0.0019999   0.2506485   0.2486098  )
         4           N   tau(   4) = (   0.2487976   0.2547223   0.2546457  )
         5           Ti  tau(   5) = (   0.2548705   0.0000428   0.2433079  )
         6           N   tau(   6) = (  -0.0036460   0.0003586   0.2457818  )
         7           Ti  tau(   7) = (   0.2536188   0.2493211  -0.0053391  )
         8           N   tau(   8) = (  -0.0021279   0.2446987   0.0077746  )
         9           Al  tau(   9) = (   0.0013572   0.0021527   0.4915023  )
        10           N   tau(  10) = (   0.2415777   0.0013963   0.4940697  )
        11           Ti  tau(  11) = (   0.0040533   0.2491188   0.7469657  )
        12           N   tau(  12) = (   0.2471952   0.2504935   0.7319051  )
        13           Ti  tau(  13) = (   0.2526485  -0.0002952   0.7495093  )
        14           N   tau(  14) = (  -0.0019270   0.0002507   0.7505865  )
        15           Al  tau(  15) = (   0.2478922   0.2480441   0.4913616  )
        16           N   tau(  16) = (   0.0017967   0.2430136   0.4887934  )
        17           Al  tau(  17) = (  -0.0026215   0.4994556   0.0055642  )
        18           N   tau(  18) = (   0.2367900   0.4982726   0.0096426  )
        19           Al  tau(  19) = (  -0.0022728   0.7454379   0.2476079  )
        20           N   tau(  20) = (   0.2488973   0.7402332   0.2530683  )
        21           Al  tau(  21) = (   0.2473165   0.4974105   0.2503778  )
        22           N   tau(  22) = (  -0.0036438   0.4979586   0.2445416  )
        23           Ti  tau(  23) = (   0.2525041   0.7458164  -0.0062202  )
        24           N   tau(  24) = (  -0.0046063   0.7495549   0.0081177  )
        25           Ti  tau(  25) = (  -0.0005524   0.5018135   0.5068204  )
        26           N   tau(  26) = (   0.2464328   0.4969284   0.4897508  )
        27           Ti  tau(  27) = (   0.0013719   0.7457877   0.7433830  )
        28           N   tau(  28) = (   0.2471047   0.7445510   0.7332256  )
        29           Ti  tau(  29) = (   0.2505424   0.4980687   0.7491657  )
        30           N   tau(  30) = (  -0.0076341   0.4972276   0.7590256  )
        31           Al  tau(  31) = (   0.2466243   0.7481498   0.4909381  )
        32           N   tau(  32) = (   0.0054768   0.7557368   0.4873500  )
        33           Al  tau(  33) = (   0.5047721  -0.0030550   0.0054023  )
        34           N   tau(  34) = (   0.7487489  -0.0055443   0.0072353  )
        35           Al  tau(  35) = (   0.5001060   0.2521287   0.2523896  )
        36           N   tau(  36) = (   0.7460272   0.2511490   0.2531145  )
        37           Al  tau(  37) = (   0.7475733   0.0002003   0.2483560  )
        38           N   tau(  38) = (   0.5034132  -0.0005206   0.2434544  )
        39           Ti  tau(  39) = (   0.7407478   0.2495758  -0.0074878  )
        40           N   tau(  40) = (   0.4989000   0.2375804   0.0111978  )
        41           Ti  tau(  41) = (   0.5009333  -0.0043915   0.5069684  )
        42           N   tau(  42) = (   0.7557803   0.0079231   0.4883926  )
        43           Ti  tau(  43) = (   0.4934647   0.2485999   0.7472437  )
        44           N   tau(  44) = (   0.7474612   0.2566343   0.7367359  )
        45           Ti  tau(  45) = (   0.7416811  -0.0028191   0.7411439  )
        46           N   tau(  46) = (   0.4992776   0.0003898   0.7612810  )
        47           Al  tau(  47) = (   0.7477318   0.2494016   0.4934962  )
        48           N   tau(  48) = (   0.4954472   0.2471903   0.4884451  )
        49           Ti  tau(  49) = (   0.4902058   0.4942938  -0.0077203  )
        50           N   tau(  50) = (   0.7519991   0.5021401   0.0018844  )
        51           Al  tau(  51) = (   0.5003134   0.7419160   0.2469912  )
        52           N   tau(  52) = (   0.7457395   0.7441418   0.2461792  )
        53           Al  tau(  53) = (   0.7461311   0.4974774   0.2477205  )
        54           N   tau(  54) = (   0.4999038   0.4970854   0.2470900  )
        55           Al  tau(  55) = (   0.7472463   0.7453664   0.0041134  )
        56           N   tau(  56) = (   0.5039526   0.7532466   0.0091132  )
        57           Ti  tau(  57) = (   0.4976192   0.5015291   0.5066254  )
        58           N   tau(  58) = (   0.7482295   0.4905385   0.4970809  )
        59           Ti  tau(  59) = (   0.4961041   0.7469892   0.7431466  )
        60           N   tau(  60) = (   0.7474860   0.7369896   0.7556840  )
        61           Al  tau(  61) = (   0.7486644   0.4975364   0.7498300  )
        62           N   tau(  62) = (   0.5091715   0.4972550   0.7473187  )
        63           Ti  tau(  63) = (   0.7419549   0.7481602   0.5044585  )
        64           N   tau(  64) = (   0.4875291   0.7472387   0.4859372  )

     number of k points=     8  Gaussian smearing, width (Ry)=  0.0050
                       cart. coord. in units 2pi/alat
        k(    1) = (   0.0000000   0.0000000   0.0000000), wk =   0.2500000
        k(    2) = (   0.0000000   0.0000000  -0.5000000), wk =   0.2500000
        k(    3) = (   0.0000000  -0.5000000  -0.5000000), wk =   0.2500000
        k(    4) = (  -0.5000000  -0.5000000  -0.5000000), wk =   0.2500000
        k(    5) = (  -0.5000000   0.0000000   0.0000000), wk =   0.2500000
        k(    6) = (   0.0000000  -0.5000000   0.0000000), wk =   0.2500000
        k(    7) = (  -0.5000000   0.0000000   0.5000000), wk =   0.2500000
        k(    8) = (  -0.5000000   0.5000000   0.0000000), wk =   0.2500000

     Dense  grid:   246825 G-vectors     FFT dimensions: (  80,  80,  80)

     Estimated max dynamical RAM per process >     204.57 MB

     Estimated total dynamical RAM >       6.22 GB

     Check: negative core charge=   -0.000021

     Initial potential from superposition of free atoms

     starting charge     399.9395, renormalised to     400.0000
     Starting wfcs are  352 randomized atomic wfcs
     Checking if some PAW data can be deallocated... 

     total cpu time spent up to now is        3.6 secs

     Self-consistent Calculation

     iteration #  1     ecut=    60.00 Ry     beta= 0.20
     Davidson diagonalization with overlap
     ethr =  1.00E-02,  avg # of iterations =  2.0

     total cpu time spent up to now is       10.2 secs

     total energy              =   -4482.63789761 Ry
     estimated scf accuracy    <      18.56699280 Ry

     iteration #  2     ecut=    60.00 Ry     beta= 0.20
     Davidson diagonalization with overlap
     ethr =  4.64E-03,  avg # of iterations =  1.0

     total cpu time spent up to now is       15.6 secs

     total energy              =   -4478.15433589 Ry
     estimated scf accuracy    <      10.52475847 Ry

     iteration #  3     ecut=    60.00 Ry     beta= 0.20
     Davidson diagonalization with overlap
     ethr =  2.63E-03,  avg # of iterations =  3.0

     total cpu time spent up to now is       22.9 secs

     total energy              =   -4480.61295614 Ry
     estimated scf accuracy    <       0.59738035 Ry

     iteration #  4     ecut=    60.00 Ry     beta= 0.20
     Davidson diagonalization with overlap
     ethr =  1.49E-04,  avg # of iterations =  6.1

     total cpu time spent up to now is       31.1 secs

     total energy              =   -4480.68400196 Ry
     estimated scf accuracy    <       0.40513942 Ry

     iteration #  5     ecut=    60.00 Ry     beta= 0.20
     Davidson diagonalization with overlap
     ethr =  1.01E-04,  avg # of iterations =  1.2

     total cpu time spent up to now is       36.7 secs

     total energy              =   -4480.65562948 Ry
     estimated scf accuracy    <       0.20435836 Ry

     iteration #  6     ecut=    60.00 Ry     beta= 0.20
     Davidson diagonalization with overlap
     ethr =  5.11E-05,  avg # of iterations =  2.0

     total cpu time spent up to now is       43.2 secs

     total energy              =   -4480.65866135 Ry
     estimated scf accuracy    <       0.06423432 Ry

     iteration #  7     ecut=    60.00 Ry     beta= 0.20
     Davidson diagonalization with overlap
     ethr =  1.61E-05,  avg # of iterations =  2.4

     total cpu time spent up to now is       49.4 secs

     total energy              =   -4480.65537295 Ry
     estimated scf accuracy    <       0.01910701 Ry

     iteration #  8     ecut=    60.00 Ry     beta= 0.20
     Davidson diagonalization with overlap
     ethr =  4.78E-06,  avg # of iterations =  7.8

     total cpu time spent up to now is       60.5 secs

     total energy              =   -4480.65881524 Ry
     estimated scf accuracy    <       0.00957005 Ry

     iteration #  9     ecut=    60.00 Ry     beta= 0.20
     Davidson diagonalization with overlap
     ethr =  2.39E-06,  avg # of iterations =  3.6

     total cpu time spent up to now is       69.4 secs

     total energy              =   -4480.66014573 Ry
     estimated scf accuracy    <       0.00090590 Ry

     iteration # 10     ecut=    60.00 Ry     beta= 0.20
     Davidson diagonalization with overlap
     ethr =  2.26E-07,  avg # of iterations =  7.8

     total cpu time spent up to now is       79.7 secs

     total energy              =   -4480.66026587 Ry
     estimated scf accuracy    <       0.00057065 Ry

     iteration # 11     ecut=    60.00 Ry     beta= 0.20
     Davidson diagonalization with overlap
     ethr =  1.43E-07,  avg # of iterations =  1.0

     total cpu time spent up to now is       85.1 secs

     total energy              =   -4480.66020500 Ry
     estimated scf accuracy    <       0.00027226 Ry

     iteration # 12     ecut=    60.00 Ry     beta= 0.20
     Davidson diagonalization with overlap
     ethr =  6.81E-08,  avg # of iterations =  2.0

     total cpu time spent up to now is       92.1 secs

     total energy              =   -4480.66019366 Ry
     estimated scf accuracy    <       0.00015967 Ry

     iteration # 13     ecut=    60.00 Ry     beta= 0.20
     Davidson diagonalization with overlap
     ethr =  3.99E-08,  avg # of iterations =  2.0

     total cpu time spent up to now is       98.6 secs

     total energy              =   -4480.66021132 Ry
     estimated scf accuracy    <       0.00001577 Ry

     iteration # 14     ecut=    60.00 Ry     beta= 0.20
     Davidson diagonalization with overlap
     ethr =  3.94E-09,  avg # of iterations =  3.5

     total cpu time spent up to now is      105.9 secs

     total energy              =   -4480.66020988 Ry
     estimated scf accuracy    <       0.00000817 Ry

     iteration # 15     ecut=    60.00 Ry     beta= 0.20
     Davidson diagonalization with overlap
     ethr =  2.04E-09,  avg # of iterations =  4.8

     total cpu time spent up to now is      113.7 secs

     total energy              =   -4480.66021129 Ry
     estimated scf accuracy    <       0.00000112 Ry

     iteration # 16     ecut=    60.00 Ry     beta= 0.20
     Davidson diagonalization with overlap
     ethr =  2.81E-10,  avg # of iterations =  3.2

     total cpu time spent up to now is      121.8 secs

     total energy              =   -4480.66021111 Ry
     estimated scf accuracy    <       0.00000070 Ry

     iteration # 17     ecut=    60.00 Ry     beta= 0.20
     Davidson diagonalization with overlap
     ethr =  1.74E-10,  avg # of iterations =  2.2

     total cpu time spent up to now is      128.4 secs

     total energy              =   -4480.66021107 Ry
     estimated scf accuracy    <       0.00000027 Ry

     iteration # 18     ecut=    60.00 Ry     beta= 0.20
     Davidson diagonalization with overlap
     ethr =  6.71E-11,  avg # of iterations =  2.0

     total cpu time spent up to now is      135.5 secs

     total energy              =   -4480.66021111 Ry
     estimated scf accuracy    <       0.00000005 Ry

     iteration # 19     ecut=    60.00 Ry     beta= 0.20
     Davidson diagonalization with overlap
     ethr =  1.35E-11,  avg # of iterations =  4.4

     total cpu time spent up to now is      142.5 secs

     total energy              =   -4480.66021112 Ry
     estimated scf accuracy    <       0.00000002 Ry

     iteration # 20     ecut=    60.00 Ry     beta= 0.20
     Davidson diagonalization with overlap
     ethr =  4.86E-12,  avg # of iterations =  2.5

     total cpu time spent up to now is      148.8 secs

     End of self-consistent calculation

          k = 0.0000 0.0000 0.0000 ( 31031 PWs)   bands (ev):

   -43.3471 -43.1498 -42.9678 -42.9404 -42.9296 -42.8986 -42.8557 -42.8239
   -42.7727 -42.7458 -42.7154 -42.6987 -42.6750 -42.6701 -42.6678 -42.6475
   -19.7450 -19.6591 -19.6326 -19.5623 -19.5056 -19.4821 -19.4587 -19.4504
   -19.4148 -19.3873 -19.3812 -19.3500 -19.3331 -19.3180 -19.3113 -19.2867
   -19.2734 -19.2607 -19.2563 -19.2474 -19.2242 -19.2035 -19.1894 -19.1798
   -19.1632 -19.1446 -19.1427 -19.1330 -19.1075 -19.0975 -19.0773 -19.0434
   -19.0351 -19.0341 -18.9956 -18.9917 -18.9790 -18.9578 -18.9534 -18.9344
   -18.9022 -18.8880 -18.8851 -18.8772 -18.8748 -18.8684 -18.8421 -18.8279
    -3.3260  -2.1651  -2.0546  -1.9687  -1.9398  -1.8252  -1.7376  -1.1340
    -0.9917  -0.9418  -0.9328  -0.8997  -0.8601  -0.8241  -0.8097  -0.7739
    -0.7541  -0.6868  -0.6474  -0.5563  -0.4594  -0.4277  -0.4039  -0.3576
    -0.2972  -0.2816  -0.1699  -0.0610  -0.0293   0.0451   0.1156   0.1188
     5.6312   5.6780   5.7281   5.7630   6.9975   7.0216   7.0701   7.1072
     7.1253   7.2543   7.3301   7.3523   7.4206   7.5373   7.5623   7.8044
     7.8380   7.8837   7.9351   7.9891   8.0286   8.0368   8.1322   8.1578
     8.3540   8.3628   8.4216   8.4443   8.5281   8.5924   8.6507   8.6821
     8.8130   8.8664   8.9247   8.9391   8.9889   9.2552   9.2883   9.3327
     9.3627   9.4068   9.4384   9.4522   9.4689   9.5266   9.5916   9.5987
     9.6267   9.7352   9.7714   9.8292   9.9313  10.0343  10.0744  10.1106
    10.2220  10.2781  10.3491  10.3963  10.4574  10.5774  10.6371  10.6784
    10.7429  10.7790  10.8375  10.8813  10.9389  10.9604  10.9862  11.0639
    11.1068  11.1605  11.2366  11.3352  11.3965  11.4703  11.4797  11.5453
    11.5716  11.6329  11.6709  11.6811  11.7354  11.7392  11.7633  11.7870
    11.8708  11.9243  11.9335  11.9372  11.9625  12.6186  12.8341  12.9078
    12.9496  12.9762  13.0277  13.8577  13.9065  14.0087  14.0559  14.1741
    14.4003  15.0724  15.1030  15.5141  15.7722  15.7994  15.9031  15.9242
    16.0351  16.0525  16.1313  16.1556  16.2302  16.2577  16.2976  16.3546
    16.3999  16.4221  16.4738  16.4922  16.5299  16.5443  16.5638  16.6128
    16.6698  16.6821  16.7070  16.7361  16.7517  16.7827  16.7880  16.8104
    16.8385  16.9006  16.9232  16.9344  16.9739  17.0104  17.0279  17.0442

          k = 0.0000 0.0000-0.5000 ( 30814 PWs)   bands (ev):

   -43.3471 -43.1498 -42.9677 -42.9404 -42.9296 -42.8986 -42.8557 -42.8239
   -42.7727 -42.7458 -42.7154 -42.6985 -42.6750 -42.6700 -42.6677 -42.6475
   -19.7449 -19.6590 -19.6312 -19.5628 -19.5058 -19.4820 -19.4584 -19.4512
   -19.4150 -19.3871 -19.3812 -19.3510 -19.3296 -19.3189 -19.3078 -19.2884
   -19.2761 -19.2613 -19.2561 -19.2474 -19.2229 -19.2057 -19.1895 -19.1788
   -19.1642 -19.1460 -19.1422 -19.1323 -19.1078 -19.0976 -19.0774 -19.0436
   -19.0363 -19.0340 -18.9946 -18.9908 -18.9783 -18.9596 -18.9532 -18.9305
   -18.9038 -18.8889 -18.8825 -18.8772 -18.8746 -18.8701 -18.8421 -18.8285
    -3.1175  -2.6628  -1.9465  -1.8196  -1.7857  -1.6904  -1.5314  -1.3818
    -1.3081  -1.2678  -1.1170  -0.9808  -0.8501  -0.7559  -0.7168  -0.6807
    -0.6614  -0.6386  -0.5913  -0.5748  -0.5116  -0.4725  -0.3793  -0.3080
    -0.2337  -0.2033  -0.1553  -0.0482   0.0188   0.0792   0.0948   0.1362
     5.9930   6.0632   6.0692   6.2196   6.3544   6.6718   6.9744   7.0003
     7.0185   7.2014   7.2579   7.2962   7.3476   7.5947   7.6761   7.6947
     7.7973   7.8270   7.8427   7.9132   7.9496   7.9962   8.0504   8.0844
     8.1494   8.2608   8.3032   8.3529   8.3772   8.4660   8.5016   8.5523
     8.6984   8.8252   8.9740   9.0857   9.2530   9.2814   9.3534   9.3601
     9.4669   9.5154   9.5224   9.5711   9.5791   9.6358   9.6977   9.7706
     9.8481   9.9245   9.9573  10.0447  10.1049  10.1298  10.1684  10.3084
    10.3440  10.4249  10.4961  10.5489  10.5617  10.5928  10.6193  10.6261
    10.6941  10.7212  10.7644  10.7885  10.8166  10.8586  10.9013  10.9379
    10.9709  11.0290  11.0677  11.1427  11.1927  11.2290  11.2468  11.3318
    11.3957  11.4282  11.4608  11.5542  11.6540  11.7206  11.8054  11.8205
    11.9070  11.9291  11.9468  11.9739  12.3520  12.3906  12.4479  12.4998
    12.6480  13.6700  13.7562  13.8730  14.3498  14.3791  14.5665  14.5827
    14.6245  15.1464  15.2051  15.4577  15.4852  15.5487  15.6444  15.8006
    15.8987  15.9307  15.9559  16.0436  16.0997  16.1414  16.1680  16.2097
    16.2497  16.3090  16.3254  16.3797  16.4529  16.5055  16.5199  16.5551
    16.5724  16.6181  16.6968  16.7405  16.7660  16.7732  16.8058  16.8570
    16.9230  16.9330  16.9394  16.9845  16.9872  17.0789  17.0949  17.1279

          k = 0.0000-0.5000-0.5000 ( 30888 PWs)   bands (ev):

   -43.3471 -43.1498 -42.9672 -42.9414 -42.9293 -42.8983 -42.8554 -42.8243
   -42.7724 -42.7456 -42.7184 -42.6972 -42.6754 -42.6713 -42.6592 -42.6531
   -19.7449 -19.6585 -19.6309 -19.5571 -19.5012 -19.4822 -19.4525 -19.4360
   -19.4036 -19.3960 -19.3883 -19.3674 -19.3412 -19.3182 -19.3134 -19.2894
   -19.2824 -19.2739 -19.2591 -19.2508 -19.2168 -19.2020 -19.1915 -19.1818
   -19.1725 -19.1549 -19.1381 -19.1283 -19.1158 -19.0836 -19.0622 -19.0569
   -19.0164 -19.0129 -19.0008 -18.9826 -18.9649 -18.9529 -18.9387 -18.9330
   -18.9206 -18.9062 -18.8988 -18.8795 -18.8695 -18.8570 -18.8491 -18.8345
    -2.7681  -2.7409  -2.3194  -2.2385  -1.5375  -1.4915  -1.4376  -1.4190
    -1.2315  -1.1113  -1.0956  -1.0399  -0.9678  -0.8779  -0.7703  -0.7194
    -0.7027  -0.6866  -0.5800  -0.5581  -0.4564  -0.3806  -0.3107  -0.2434
    -0.1946  -0.1663  -0.1486  -0.1056   0.0008   0.0253   0.0527   0.0956
     5.9645   6.1270   6.3752   6.4278   6.5207   6.7282   6.9338   6.9964
     7.0575   7.1591   7.2311   7.3098   7.3463   7.4070   7.4338   7.4499
     7.5049   7.6894   7.7209   7.8733   7.8863   7.9404   8.0135   8.0504
     8.1613   8.1779   8.2627   8.3501   8.4037   8.4335   8.6893   8.7547
     9.0171   9.0398   9.0935   9.1797   9.3200   9.3563   9.3958   9.4952
     9.5036   9.5986   9.6544   9.7040   9.7405   9.7622   9.8537   9.8754
     9.9085   9.9516   9.9985  10.0042  10.0712  10.0886  10.1748  10.2305
    10.2401  10.2645  10.3833  10.4142  10.4471  10.5168  10.5592  10.5707
    10.5865  10.6617  10.6980  10.7452  10.8193  10.8326  10.8672  10.9317
    10.9900  11.0189  11.1080  11.1685  11.2233  11.2690  11.3252  11.3299
    11.4020  11.4380  11.4755  11.5384  11.5616  11.5933  11.6438  11.6853
    11.7318  11.7445  11.8468  11.9477  11.9659  12.0265  12.3087  12.3261
    13.8852  13.9782  14.0911  14.2404  14.3153  14.3722  14.7315  14.7785
    14.8245  14.9185  15.1070  15.1508  15.2002  15.2554  15.3789  15.4934
    15.6281  15.6582  15.7455  15.7803  15.9315  15.9913  16.0875  16.1283
    16.1790  16.2181  16.2802  16.3008  16.3537  16.3978  16.5427  16.6129
    16.6398  16.6485  16.6796  16.7088  16.7982  16.8031  16.8738  16.9779
    16.9905  17.0114  17.0427  17.0580  17.1152  17.1600  17.1705  17.2123

          k =-0.5000-0.5000-0.5000 ( 30688 PWs)   bands (ev):

   -43.3471 -43.1498 -42.9672 -42.9411 -42.9294 -42.8984 -42.8555 -42.8244
   -42.7722 -42.7455 -42.7181 -42.6973 -42.6755 -42.6713 -42.6592 -42.6532
   -19.7449 -19.6585 -19.6306 -19.5540 -19.5002 -19.4834 -19.4527 -19.4350
   -19.4139 -19.3980 -19.3921 -19.3532 -19.3312 -19.3180 -19.3047 -19.2946
   -19.2902 -19.2869 -19.2485 -19.2411 -19.2337 -19.2069 -19.1878 -19.1732
   -19.1615 -19.1598 -19.1404 -19.1328 -19.1108 -19.0833 -19.0709 -19.0567
   -19.0203 -19.0144 -19.0012 -18.9819 -18.9683 -18.9521 -18.9412 -18.9392
   -18.9212 -18.9053 -18.8931 -18.8779 -18.8700 -18.8561 -18.8438 -18.8324
    -2.5179  -2.4562  -2.3467  -2.2895  -2.0483  -1.8163  -1.7930  -1.7526
    -0.9346  -0.8873  -0.8582  -0.8495  -0.8178  -0.7731  -0.7396  -0.6685
    -0.5662  -0.5182  -0.4929  -0.4754  -0.4393  -0.3839  -0.3480  -0.2999
    -0.2612  -0.2255  -0.2076  -0.1427  -0.1400  -0.0738  -0.0619  -0.0174
     6.3454   6.3923   6.4523   6.5551   6.6445   6.6718   6.7280   6.7505
     6.7931   6.9110   7.0555   7.0808   7.2330   7.3675   7.4079   7.5396
     7.5773   7.6435   7.6842   7.7418   7.8368   7.9001   7.9815   8.4055
     8.5396   8.5924   8.6974   8.7365   8.8005   8.8556   8.9040   8.9479
     9.0369   9.0817   9.1209   9.2036   9.2353   9.2954   9.3108   9.3621
     9.3845   9.4226   9.4272   9.4641   9.5480   9.5742   9.6417   9.6668
     9.6781   9.7628   9.7932   9.8301   9.9422   9.9747  10.0489  10.0861
    10.2257  10.2938  10.3658  10.3824  10.4511  10.4688  10.4994  10.5497
    10.6049  10.6145  10.6629  10.7404  10.7791  10.7960  10.8729  10.9208
    10.9385  10.9881  11.1061  11.1594  11.1894  11.2303  11.2693  11.3692
    11.4854  11.5276  11.5501  11.5738  11.6935  11.7174  11.7200  11.7917
    11.8604  11.9014  11.9313  12.0593  12.0863  12.1318  12.1767  12.2531
    14.2268  14.2725  14.3242  14.4036  14.4744  14.5053  14.6278  14.6637
    14.7644  14.8528  14.9272  15.0103  15.1063  15.1565  15.2088  15.3407
    15.3837  15.4040  15.6733  15.6967  15.7503  15.7842  15.8619  15.8836
    15.9622  16.0019  16.0259  16.1190  16.1821  16.2002  16.2749  16.5919
    16.6791  16.7049  16.7854  16.8409  16.8486  16.9040  16.9473  17.0669
    17.0830  17.1106  17.1226  17.1530  17.1647  17.2448  17.2709  17.2856

          k =-0.5000 0.0000 0.0000 ( 30814 PWs)   bands (ev):

   -43.3471 -43.1498 -42.9677 -42.9402 -42.9297 -42.8987 -42.8559 -42.8239
   -42.7725 -42.7457 -42.7152 -42.6988 -42.6750 -42.6700 -42.6677 -42.6476
   -19.7450 -19.6588 -19.6326 -19.5554 -19.4988 -19.4826 -19.4515 -19.4338
   -19.4095 -19.3975 -19.3811 -19.3722 -19.3523 -19.3331 -19.3039 -19.2863
   -19.2811 -19.2698 -19.2615 -19.2415 -19.2209 -19.2068 -19.1887 -19.1758
   -19.1594 -19.1512 -19.1462 -19.1221 -19.1015 -19.0846 -19.0640 -19.0464
   -19.0387 -19.0298 -18.9923 -18.9843 -18.9785 -18.9578 -18.9548 -18.9287
   -18.9068 -18.8932 -18.8848 -18.8810 -18.8781 -18.8669 -18.8463 -18.8302
    -3.0042  -2.8627  -1.9269  -1.8332  -1.6489  -1.6233  -1.6053  -1.4184
    -1.4041  -1.2770  -1.0760  -0.9498  -0.7419  -0.7241  -0.6943  -0.6625
    -0.6070  -0.5445  -0.5342  -0.5190  -0.4932  -0.4413  -0.4070  -0.3068
    -0.2904  -0.2031  -0.1680  -0.1302  -0.0678  -0.0463  -0.0248   0.1163
     5.9972   6.0433   6.1010   6.2307   6.4284   6.5438   6.5620   6.6308
     7.1495   7.2048   7.2131   7.3478   7.3998   7.4594   7.4894   7.5755
     7.7925   7.8450   7.9248   8.0133   8.0337   8.1328   8.1657   8.2466
     8.2619   8.3742   8.4344   8.4682   8.4937   8.5555   8.6096   8.6596
     8.7418   8.8716   8.9118   8.9324   9.0313   9.3698   9.4649   9.5461
     9.6144   9.6414   9.6895   9.7403   9.7671   9.8013   9.8867   9.9389
    10.0321  10.0655  10.0856  10.1177  10.1331  10.1698  10.1924  10.3161
    10.3392  10.3935  10.4140  10.4687  10.4848  10.5132  10.5492  10.5896
    10.6191  10.6648  10.7214  10.7326  10.7801  10.8324  10.8575  10.8994
    10.9077  10.9414  10.9599  10.9829  11.1174  11.1745  11.2536  11.2659
    11.3012  11.3068  11.3776  11.4059  11.4687  11.5245  11.6105  11.6564
    11.7095  11.7510  11.8971  11.9499  12.3401  12.3807  12.4172  12.4458
    12.8968  13.5470  13.8795  14.0000  14.4531  14.5240  14.5964  14.7220
    14.8080  14.8954  14.9472  15.0348  15.2227  15.4630  15.4979  15.7009
    15.7256  15.8404  15.9085  16.0047  16.0616  16.0999  16.2092  16.2208
    16.2720  16.3367  16.4281  16.4482  16.5147  16.5338  16.5628  16.6285
    16.6383  16.6952  16.7024  16.7219  16.7472  16.7961  16.8382  16.8516
    16.8903  16.8986  16.9707  16.9987  17.0230  17.0421  17.0541  17.1195

          k = 0.0000-0.5000 0.0000 ( 30814 PWs)   bands (ev):

   -43.3471 -43.1498 -42.9672 -42.9414 -42.9293 -42.8983 -42.8554 -42.8243
   -42.7724 -42.7455 -42.7183 -42.6974 -42.6754 -42.6713 -42.6592 -42.6531
   -19.7450 -19.6586 -19.6321 -19.5574 -19.5012 -19.4820 -19.4529 -19.4346
   -19.4030 -19.3954 -19.3885 -19.3669 -19.3403 -19.3212 -19.3132 -19.2921
   -19.2814 -19.2729 -19.2595 -19.2506 -19.2161 -19.2007 -19.1907 -19.1818
   -19.1710 -19.1574 -19.1367 -19.1287 -19.1153 -19.0833 -19.0628 -19.0563
   -19.0171 -19.0128 -19.0012 -18.9819 -18.9632 -18.9535 -18.9409 -18.9358
   -18.9193 -18.9052 -18.8969 -18.8789 -18.8693 -18.8578 -18.8491 -18.8354
    -2.9546  -2.9284  -1.9116  -1.7978  -1.7126  -1.6043  -1.5437  -1.4910
    -1.3779  -1.2265  -1.1008  -0.9397  -0.7637  -0.7405  -0.6839  -0.6528
    -0.6419  -0.6144  -0.5244  -0.5014  -0.4631  -0.4239  -0.3666  -0.3392
    -0.2738  -0.2587  -0.2286  -0.1250  -0.0414  -0.0298   0.0475   0.0950
     5.9411   6.0317   6.2027   6.2699   6.2900   6.4160   6.7183   6.7655
     7.1247   7.2110   7.2349   7.3313   7.3727   7.4908   7.5318   7.6346
     7.6399   7.7141   7.9210   8.0813   8.0852   8.1132   8.1864   8.2393
     8.3113   8.3880   8.3975   8.4264   8.4744   8.5236   8.6143   8.6753
     8.7154   8.8770   8.9660   9.0158   9.0812   9.3326   9.5140   9.5704
     9.6080   9.6564   9.6842   9.7504   9.7679   9.7818   9.8529   9.8706
     9.9048   9.9870  10.0588  10.0688  10.1298  10.2105  10.2262  10.2935
    10.3045  10.3247  10.3521  10.4103  10.4553  10.4807  10.5224  10.5713
    10.6205  10.6503  10.6849  10.7876  10.8522  10.8538  10.8713  10.8965
    10.9522  11.0151  11.0547  11.0799  11.1188  11.1733  11.1987  11.2257
    11.3356  11.3785  11.4045  11.4400  11.5042  11.5373  11.5577  11.6044
    11.7349  11.7880  11.8927  11.9171  12.3810  12.4028  12.4158  12.4880
    13.2202  13.2826  14.0656  14.1564  14.2533  14.2812  14.6458  14.7158
    14.7562  14.7877  14.8081  15.2433  15.2987  15.3393  15.3816  15.7251
    15.8529  15.8690  15.9400  15.9783  16.0436  16.1448  16.2083  16.2516
    16.2894  16.3043  16.3233  16.3617  16.4656  16.5373  16.5760  16.5963
    16.6749  16.7149  16.7476  16.7616  16.7939  16.8452  16.8832  16.9030
    16.9323  16.9773  16.9890  17.0116  17.0500  17.0605  17.0879  17.1425

          k =-0.5000 0.0000 0.5000 ( 30888 PWs)   bands (ev):

   -43.3471 -43.1498 -42.9677 -42.9402 -42.9297 -42.8987 -42.8559 -42.8239
   -42.7725 -42.7457 -42.7152 -42.6987 -42.6751 -42.6700 -42.6677 -42.6476
   -19.7449 -19.6588 -19.6312 -19.5559 -19.4989 -19.4826 -19.4518 -19.4331
   -19.4101 -19.3985 -19.3820 -19.3723 -19.3504 -19.3327 -19.3081 -19.2860
   -19.2809 -19.2713 -19.2549 -19.2415 -19.2212 -19.2054 -19.1895 -19.1761
   -19.1599 -19.1534 -19.1473 -19.1224 -19.1011 -19.0848 -19.0637 -19.0467
   -19.0386 -19.0319 -18.9912 -18.9838 -18.9782 -18.9604 -18.9545 -18.9246
   -18.9075 -18.8937 -18.8834 -18.8807 -18.8780 -18.8677 -18.8466 -18.8310
    -2.8132  -2.6841  -2.3646  -2.1573  -1.5306  -1.5109  -1.4980  -1.4672
    -1.2256  -1.1557  -1.0488  -1.0154  -0.9970  -0.9163  -0.7896  -0.7565
    -0.6741  -0.6221  -0.4916  -0.4751  -0.4178  -0.3895  -0.3261  -0.2585
    -0.2173  -0.1729  -0.1268  -0.1039  -0.0263  -0.0148   0.0189   0.1028
     6.0500   6.0878   6.2680   6.5421   6.5844   6.8468   6.9000   6.9604
     6.9894   7.0755   7.1638   7.3091   7.3507   7.3859   7.4305   7.4596
     7.5043   7.5998   7.6426   7.7128   7.8755   7.8912   8.0130   8.1225
     8.1733   8.3094   8.3186   8.4225   8.4525   8.4970   8.7419   8.8248
     8.9224   8.9983   9.0176   9.1817   9.3151   9.3515   9.4431   9.5171
     9.5578   9.6069   9.6638   9.7317   9.7354   9.8021   9.8459   9.8777
     9.9396   9.9764   9.9901  10.0383  10.0830  10.1679  10.2065  10.2245
    10.2832  10.2976  10.3342  10.3788  10.4644  10.5556  10.5876  10.6035
    10.6146  10.6884  10.7037  10.7286  10.7651  10.7949  10.8317  10.8667
    10.9199  10.9619  11.0714  11.1280  11.2379  11.2940  11.3069  11.3512
    11.4588  11.4806  11.4993  11.5139  11.5562  11.5742  11.6217  11.6768
    11.7389  11.7560  11.7839  11.8482  11.9133  12.0699  12.1694  12.3813
    13.6855  13.9056  14.1258  14.1486  14.4481  14.5655  14.6699  14.7678
    14.9109  14.9594  15.0338  15.1871  15.2312  15.2915  15.4508  15.5435
    15.5519  15.7321  15.8001  15.8380  15.8775  15.9100  16.1108  16.1270
    16.1798  16.2081  16.2828  16.3726  16.3865  16.4642  16.5097  16.5577
    16.5844  16.6532  16.6802  16.6884  16.7391  16.7997  16.8024  16.8521
    16.9056  16.9312  17.0122  17.0469  17.0541  17.1387  17.1654  17.2040

          k =-0.5000 0.5000 0.0000 ( 30888 PWs)   bands (ev):

   -43.3471 -43.1498 -42.9672 -42.9412 -42.9295 -42.8984 -42.8555 -42.8244
   -42.7723 -42.7455 -42.7181 -42.6975 -42.6754 -42.6713 -42.6593 -42.6532
   -19.7451 -19.6585 -19.6323 -19.5541 -19.5002 -19.4834 -19.4521 -19.4324
   -19.4132 -19.3980 -19.3919 -19.3534 -19.3322 -19.3172 -19.3051 -19.2952
   -19.2911 -19.2900 -19.2494 -19.2437 -19.2326 -19.2072 -19.1884 -19.1691
   -19.1603 -19.1584 -19.1405 -19.1319 -19.1099 -19.0833 -19.0707 -19.0563
   -19.0210 -19.0144 -19.0019 -18.9812 -18.9678 -18.9543 -18.9438 -18.9412
   -18.9191 -18.9045 -18.8923 -18.8772 -18.8691 -18.8569 -18.8441 -18.8331
    -2.6542  -2.6392  -2.5136  -2.4590  -1.4738  -1.4152  -1.3570  -1.3321
    -1.2773  -1.1300  -1.1031  -1.0344  -0.8574  -0.8394  -0.7585  -0.7131
    -0.6280  -0.6086  -0.5444  -0.4596  -0.4483  -0.3748  -0.3217  -0.2928
    -0.2876  -0.2210  -0.1704  -0.1436  -0.0984  -0.0631   0.0065   0.0249
     6.0644   6.1517   6.3522   6.4575   6.4739   6.5323   6.7341   6.7984
     6.8636   7.0048   7.0282   7.2173   7.3719   7.4857   7.5200   7.6089
     7.6281   7.7143   7.7317   7.8873   7.9218   7.9633   8.0424   8.0891
     8.1106   8.1763   8.3676   8.3777   8.6630   8.7460   8.8265   9.0034
     9.1137   9.2653   9.3021   9.3356   9.3830   9.4145   9.4575   9.5041
     9.5396   9.5923   9.7257   9.7541   9.8115   9.8214   9.9292   9.9338
     9.9449   9.9959  10.0381  10.0743  10.1073  10.1544  10.1990  10.2956
    10.3061  10.3517  10.3893  10.4634  10.4794  10.4887  10.5257  10.5431
    10.5896  10.6068  10.6597  10.7088  10.7641  10.7924  10.8091  10.8244
    10.8401  10.8697  10.9222  10.9258  11.0394  11.0715  11.0879  11.1575
    11.2357  11.2937  11.3441  11.3514  11.4458  11.4737  11.5094  11.6658
    11.7312  11.7516  11.8392  11.8567  12.0411  12.1809  12.2563  12.3673
    14.1344  14.1859  14.2111  14.3189  14.4351  14.4726  14.6041  14.6892
    14.7893  14.8129  14.8835  15.0009  15.1662  15.3031  15.3156  15.3853
    15.4637  15.5114  15.6299  15.7450  15.8020  15.8835  15.9488  15.9618
    16.0339  16.1598  16.2020  16.3190  16.3309  16.3873  16.4358  16.6737
    16.7342  16.7906  16.8024  16.8617  16.8715  16.9054  16.9207  16.9521
    16.9994  17.0340  17.0599  17.0897  17.1194  17.1507  17.2047  17.2394

     the Fermi energy is    14.7360 ev

!    total energy              =   -4480.66021112 Ry
     total all-electron energy =    -38603.272796 Ry
     estimated scf accuracy    <          9.7E-09 Ry
     smearing contrib. (-TS)   =      -0.00355942 Ry
     internal energy E=F+TS    =   -4480.65665170 Ry

     The total energy is F=E-TS. E is the sum of the following terms:
     one-electron contribution =    -819.25766200 Ry
     hartree contribution      =     668.12413120 Ry
     xc contribution           =    -528.69927387 Ry
     ewald contribution        =   -1945.84977068 Ry
     one-center paw contrib.   =   -1854.97407635 Ry

     convergence has been achieved in  20 iterations

     Forces acting on atoms (cartesian axes, Ry/au):

     atom    1 type  1   force =    -0.00757675   -0.00621092   -0.00583105
     atom    2 type  2   force =     0.00034533   -0.01276795   -0.01234347
     atom    3 type  1   force =    -0.00620660    0.00035102   -0.00133443
     atom    4 type  2   force =     0.00071019   -0.00168868   -0.00182802
     atom    5 type  3   force =     0.00139161   -0.00689526    0.00082141
     atom    6 type  2   force =    -0.00888373   -0.00617540   -0.00006973
     atom    7 type  3   force =     0.00030443    0.00114600   -0.00999991
     atom    8 type  2   force =    -0.00941068    0.00014610   -0.00773174
     atom    9 type  1   force =    -0.00773068   -0.00751728    0.00026222
     atom   10 type  2   force =    -0.00090601   -0.00607376    0.00165065
     atom   11 type  3   force =    -0.00711070    0.00204659    0.00675006
     atom   12 type  2   force =    -0.00194721   -0.00232839    0.00810567
     atom   13 type  3   force =    -0.00022778   -0.00837073    0.00934980
     atom   14 type  2   force =    -0.01094431   -0.01103787    0.00509170
     atom   15 type  1   force =    -0.00025023   -0.00026306    0.00033989
     atom   16 type  2   force =    -0.00637780   -0.00079209    0.00051054
     atom   17 type  1   force =    -0.00819859   -0.00091927   -0.00821515
     atom   18 type  2   force =     0.00056805    0.00224428   -0.01066110
     atom   19 type  1   force =    -0.00539603    0.00483894   -0.00056882
     atom   20 type  2   force =     0.00048271    0.00837238   -0.00102024
     atom   21 type  1   force =    -0.00115707    0.00131112   -0.00112406
     atom   22 type  2   force =    -0.00731741   -0.00043705   -0.00088179
     atom   23 type  3   force =     0.00043703    0.00867284   -0.00787885
     atom   24 type  2   force =    -0.01039726    0.00802884   -0.00660834
     atom   25 type  3   force =    -0.00928029   -0.00058185    0.00131093
     atom   26 type  2   force =    -0.00223960   -0.00007362    0.00229307
     atom   27 type  3   force =    -0.00701278    0.00723989    0.00736769
     atom   28 type  2   force =    -0.00207603    0.01157349    0.00888875
     atom   29 type  3   force =    -0.00253250   -0.00059233    0.00997827
     atom   30 type  2   force =    -0.01234322    0.00252164    0.00837452
     atom   31 type  1   force =     0.00070769    0.00632228    0.00016908
     atom   32 type  2   force =    -0.00732997    0.01006901    0.00056581
     atom   33 type  1   force =     0.00001392   -0.00994104   -0.00983180
     atom   34 type  2   force =     0.00945759   -0.00880936   -0.00634979
     atom   35 type  1   force =     0.00064700   -0.00015989   -0.00053173
     atom   36 type  2   force =     0.00681660    0.00067313   -0.00065482
     atom   37 type  1   force =     0.00706385   -0.00426509    0.00034373
     atom   38 type  2   force =     0.00023733   -0.00530092   -0.00160921
     atom   39 type  3   force =     0.00658878    0.00089863   -0.00865739
     atom   40 type  2   force =     0.00188295   -0.00163168   -0.00901460
     atom   41 type  3   force =    -0.00105771   -0.01246134    0.00000851
     atom   42 type  2   force =     0.01017927   -0.00793828    0.00190839
     atom   43 type  3   force =     0.00097206   -0.00051055    0.00880166
     atom   44 type  2   force =     0.01048680   -0.00073938    0.00897442
     atom   45 type  3   force =     0.00740153   -0.00707547    0.00851318
     atom   46 type  2   force =     0.00295361   -0.01310282    0.00853236
     atom   47 type  1   force =     0.00538425    0.00099935    0.00165430
     atom   48 type  2   force =    -0.00032868   -0.00226956    0.00193093
     atom   49 type  3   force =     0.00118492   -0.00028987   -0.01546692
     atom   50 type  2   force =     0.01136340    0.00061829   -0.00768154
     atom   51 type  1   force =    -0.00078925    0.00373134    0.00012272
     atom   52 type  2   force =     0.00709083    0.00582027    0.00005988
     atom   53 type  1   force =     0.00710128    0.00012663    0.00114935
     atom   54 type  2   force =    -0.00097601   -0.00100154   -0.00254348
     atom   55 type  1   force =     0.00678109    0.00639146   -0.00681443
     atom   56 type  2   force =     0.00035168    0.01122512   -0.00714884
     atom   57 type  3   force =     0.00038934    0.00049050    0.00129090
     atom   58 type  2   force =     0.01056658    0.00137245    0.00133520
     atom   59 type  3   force =    -0.00086710    0.01109923    0.00792052
     atom   60 type  2   force =     0.01116489    0.00751320    0.00649598
     atom   61 type  1   force =     0.00791892   -0.00084777    0.00549473
     atom   62 type  2   force =    -0.00044175    0.00166961    0.01418305
     atom   63 type  3   force =     0.00685303    0.00905882   -0.00043186
     atom   64 type  2   force =     0.00151521    0.01249760    0.00228325

     Total force =     0.085700     Total SCF correction =     0.000221


     Computing stress (Cartesian axis) and pressure

          total   stress  (Ry/bohr**3)                   (kbar)     P=        6.37
   0.00003011   0.00004093  -0.00002994            4.43        6.02       -4.40
   0.00004093   0.00000369  -0.00004359            6.02        0.54       -6.41
  -0.00002994  -0.00004359   0.00009603           -4.40       -6.41       14.13

 
     init_run     :      3.05s CPU      3.22s WALL (       1 calls)
     electrons    :    141.89s CPU    145.21s WALL (       1 calls)
     forces       :      1.76s CPU      1.81s WALL (       1 calls)
     stress       :     17.10s CPU     17.27s WALL (       1 calls)

     Called by init_run:
     wfcinit      :      2.60s CPU      2.70s WALL (       1 calls)
     potinit      :      0.21s CPU      0.23s WALL (       1 calls)
     hinit0       :      0.12s CPU      0.16s WALL (       1 calls)

     Called by electrons:
     c_bands      :    121.29s CPU    123.62s WALL (      20 calls)
     sum_band     :     14.50s CPU     15.06s WALL (      20 calls)
     v_of_rho     :      0.75s CPU      0.77s WALL (      21 calls)
     newd         :      1.22s CPU      1.49s WALL (      21 calls)
     PAW_pot      :      3.37s CPU      3.45s WALL (      21 calls)
     mix_rho      :      0.97s CPU      1.03s WALL (      20 calls)

     Called by c_bands:
     init_us_2    :      1.68s CPU      1.71s WALL (      86 calls)
     init_us_2:cp :      1.68s CPU      1.71s WALL (      86 calls)
     cegterg      :    109.26s CPU    111.49s WALL (      40 calls)

     Called by *egterg:
     cdiaghg      :      9.90s CPU     10.07s WALL (     193 calls)
     h_psi        :     55.66s CPU     56.59s WALL (     195 calls)
     s_psi        :     14.53s CPU     14.67s WALL (     195 calls)
     g_psi        :      0.26s CPU      0.26s WALL (     153 calls)

     Called by h_psi:
     h_psi:calbec :     14.25s CPU     14.41s WALL (     195 calls)
     vloc_psi     :     26.26s CPU     26.72s WALL (     195 calls)
     add_vuspsi   :     14.67s CPU     14.82s WALL (     195 calls)

     General routines
     calbec       :     21.25s CPU     21.47s WALL (     245 calls)
     fft          :      0.36s CPU      0.40s WALL (     256 calls)
     ffts         :      0.49s CPU      0.50s WALL (     417 calls)
     fftw         :     26.97s CPU     27.43s WALL (   57156 calls)
 
     Parallel routines
 
     PWSCF        :   2m44.05s CPU   2m48.02s WALL

 
   This run was terminated on:  16:55:54  11May2026            

=------------------------------------------------------------------------------=
   JOB DONE.
=------------------------------------------------------------------------------=
