
     Program PWSCF v.7.1 starts on 11May2026 at 16:52:18 

     This program is part of the open-source Quantum ESPRESSO suite
     for quantum simulation of materials; please cite
         "P. Giannozzi et al., J. Phys.:Condens. Matter 21 395502 (2009);
         "P. Giannozzi et al., J. Phys.:Condens. Matter 29 465901 (2017);
         "P. Giannozzi et al., J. Chem. Phys. 152 154105 (2020);
          URL http://www.quantum-espresso.org", 
     in publications or presentations arising from this work. More details at
     http://www.quantum-espresso.org/quote

     Parallel version (MPI & OpenMP), running on      32 processor cores
     Number of MPI processes:                32
     Threads/MPI process:                     1

     MPI processes distributed on     1 nodes
     91337 MiB available memory on the printing compute node when the environment starts
 
     Reading input from TiAlN_x05finalrelaxedresult82269.in

     Current dimensions of program PWSCF are:
     Max number of different atomic species (ntypx) = 10
     Max number of k-points (npk) = 150000
     Max angular momentum in pseudopotentials (lmaxx) =  4
     file Al.pbe-n-kjpaw_psl.1.0.0.UPF: wavefunction(s)  3S 3P renormalized
     file N.pbe-n-kjpaw_psl.1.0.0.UPF: wavefunction(s)  2S renormalized
     file Ti.pbe-spn-kjpaw_psl.1.0.0.UPF: wavefunction(s)  3S 3P 3D renormalized
 
     K-points division:     npool     =       4
     R & G space division:  proc/nbgrp/npool/nimage =       8
     Subspace diagonalization in iterative solution of the eigenvalue problem:
     one sub-group per band group will be used
     scalapack distributed-memory algorithm (size of sub-group:  2*  2 procs)

 
     Parallelization info
     --------------------
     sticks:   dense  smooth     PW     G-vecs:    dense   smooth      PW
     Min         579     579    157                29521    29521    4205
     Max         581     581    159                29522    29522    4206
     Sum        4637    4637   1265               236169   236169   33641
 
     Using Slab Decomposition
 


     bravais-lattice index     =            0
     lattice parameter (alat)  =      15.5466  a.u.
     unit-cell volume          =    3757.5542 (a.u.)^3
     number of atoms/cell      =           64
     number of atomic types    =            3
     number of electrons       =       400.00
     number of Kohn-Sham states=          240
     kinetic-energy cutoff     =      60.0000  Ry
     charge density cutoff     =     240.0000  Ry
     scf convergence threshold =      1.0E-08
     mixing beta               =       0.2000
     number of iterations used =            8  local-TF  mixing
     Exchange-correlation= SLA  PW   PBX  PBC
                           (   1   4   3   4   0   0   0)

     celldm(1)=  15.546588  celldm(2)=   0.000000  celldm(3)=   0.000000
     celldm(4)=   0.000000  celldm(5)=   0.000000  celldm(6)=   0.000000

     crystal axes: (cart. coord. in units of alat)
               a(1) = (   1.000000   0.000000   0.000000 )  
               a(2) = (   0.000000   1.000000   0.000000 )  
               a(3) = (   0.000000   0.000000   1.000000 )  

     reciprocal axes: (cart. coord. in units 2 pi/alat)
               b(1) = (  1.000000  0.000000  0.000000 )  
               b(2) = (  0.000000  1.000000  0.000000 )  
               b(3) = (  0.000000  0.000000  1.000000 )  


     PseudoPot. # 1 for Al read from file:
     ../../../pseudo/Al.pbe-n-kjpaw_psl.1.0.0.UPF
     MD5 check sum: 502b6b27b9c6270cab5dd1084b96fa6d
     Pseudo is Projector augmented-wave + core cor, Zval =  3.0
     Generated using &quot;atomic&quot; code by A. Dal Corso  v.6.3
     Shape of augmentation charge: PSQ
     Using radial grid of 1135 points,  6 beta functions with: 
                l(1) =   0
                l(2) =   0
                l(3) =   1
                l(4) =   1
                l(5) =   2
                l(6) =   2
     Q(r) pseudized with 0 coefficients 


     PseudoPot. # 2 for N  read from file:
     ../../../pseudo/N.pbe-n-kjpaw_psl.1.0.0.UPF
     MD5 check sum: 14c48229446f9f2d411169a3abcbc3fa
     Pseudo is Projector augmented-wave + core cor, Zval =  5.0
     Generated using &quot;atomic&quot; code by A. Dal Corso  v.6.3
     Shape of augmentation charge: PSQ
     Using radial grid of 1085 points,  4 beta functions with: 
                l(1) =   0
                l(2) =   0
                l(3) =   1
                l(4) =   1
     Q(r) pseudized with 0 coefficients 


     PseudoPot. # 3 for Ti read from file:
     ../../../pseudo/Ti.pbe-spn-kjpaw_psl.1.0.0.UPF
     MD5 check sum: 01f69b0d8ba4438b2e03ac6ea4af1c0b
     Pseudo is Projector augmented-wave + core cor, Zval = 12.0
     Generated using &quot;atomic&quot; code by A. Dal Corso  v.6.2.2
     Shape of augmentation charge: PSQ
     Using radial grid of 1177 points,  6 beta functions with: 
                l(1) =   0
                l(2) =   0
                l(3) =   1
                l(4) =   1
                l(5) =   2
                l(6) =   2
     Q(r) pseudized with 0 coefficients 


     atomic species   valence    mass     pseudopotential
        Al             3.00    26.98200     Al( 1.00)
        N              5.00    14.00700     N ( 1.00)
        Ti            12.00    47.86700     Ti( 1.00)

     No symmetry found



   Cartesian axes

     site n.     atom                  positions (alat units)
         1           Al  tau(   1) = (  -0.0046473  -0.0012173   0.0041783  )
         2           N   tau(   2) = (   0.2487346  -0.0009348   0.0018536  )
         3           Al  tau(   3) = (  -0.0020302   0.2544462   0.2523767  )
         4           N   tau(   4) = (   0.2525673   0.2585817   0.2585039  )
         5           Ti  tau(   5) = (   0.2587321   0.0000435   0.2469944  )
         6           N   tau(   6) = (  -0.0037013   0.0003640   0.2495058  )
         7           Ti  tau(   7) = (   0.2574615   0.2530987  -0.0054200  )
         8           N   tau(   8) = (  -0.0021602   0.2484062   0.0078924  )
         9           Al  tau(   9) = (   0.0013778   0.0021854   0.4989493  )
        10           N   tau(  10) = (   0.2452380   0.0014174   0.5015556  )
        11           Ti  tau(  11) = (   0.0041147   0.2528933   0.7582833  )
        12           N   tau(  12) = (   0.2509406   0.2542889   0.7429945  )
        13           Ti  tau(  13) = (   0.2564765  -0.0002996   0.7608655  )
        14           N   tau(  14) = (  -0.0019562   0.0002545   0.7619590  )
        15           Al  tau(  15) = (   0.2516481   0.2518024   0.4988065  )
        16           N   tau(  16) = (   0.0018239   0.2466956   0.4961993  )
        17           Al  tau(  17) = (  -0.0026612   0.5070231   0.0056485  )
        18           N   tau(  18) = (   0.2403777   0.5058222   0.0097887  )
        19           Al  tau(  19) = (  -0.0023072   0.7567324   0.2513595  )
        20           N   tau(  20) = (   0.2526685   0.7514489   0.2569027  )
        21           Al  tau(  21) = (   0.2510637   0.5049470   0.2541714  )
        22           N   tau(  22) = (  -0.0036990   0.5055034   0.2482468  )
        23           Ti  tau(  23) = (   0.2563299   0.7571166  -0.0063144  )
        24           N   tau(  24) = (  -0.0046761   0.7609118   0.0082407  )
        25           Ti  tau(  25) = (  -0.0005608   0.5094168   0.5144995  )
        26           N   tau(  26) = (   0.2501667   0.5044577   0.4971713  )
        27           Ti  tau(  27) = (   0.0013927   0.7570875   0.7546463  )
        28           N   tau(  28) = (   0.2508487   0.7558321   0.7443351  )
        29           Ti  tau(  29) = (   0.2543385   0.5056152   0.7605167  )
        30           N   tau(  30) = (  -0.0077497   0.5047614   0.7705260  )
        31           Al  tau(  31) = (   0.2503611   0.7594854   0.4983766  )
        32           N   tau(  32) = (   0.0055598   0.7671874   0.4947341  )
        33           Al  tau(  33) = (   0.5124201  -0.0031013   0.0054842  )
        34           N   tau(  34) = (   0.7600936  -0.0056283   0.0073449  )
        35           Al  tau(  35) = (   0.5076834   0.2559489   0.2562137  )
        36           N   tau(  36) = (   0.7573307   0.2549542   0.2569496  )
        37           Al  tau(  37) = (   0.7589002   0.0002033   0.2521189  )
        38           N   tau(  38) = (   0.5110406  -0.0005285   0.2471431  )
        39           Ti  tau(  39) = (   0.7519712   0.2533573  -0.0076012  )
        40           N   tau(  40) = (   0.5064591   0.2411801   0.0113674  )
        41           Ti  tau(  41) = (   0.5085232  -0.0044580   0.5146498  )
        42           N   tau(  42) = (   0.7672315   0.0080432   0.4957925  )
        43           Ti  tau(  43) = (   0.5009415   0.2523666   0.7585656  )
        44           N   tau(  44) = (   0.7587864   0.2605227   0.7478986  )
        45           Ti  tau(  45) = (   0.7529187  -0.0028619   0.7523733  )
        46           N   tau(  46) = (   0.5068424   0.0003957   0.7728155  )
        47           Al  tau(  47) = (   0.7590611   0.2531804   0.5009734  )
        48           N   tau(  48) = (   0.5029540   0.2509356   0.4958457  )
        49           Ti  tau(  49) = (   0.4976332   0.5017831  -0.0078373  )
        50           N   tau(  50) = (   0.7633930   0.5097482   0.0019129  )
        51           Al  tau(  51) = (   0.5078939   0.7531572   0.2507335  )
        52           N   tau(  52) = (   0.7570386   0.7554166   0.2499092  )
        53           Al  tau(  53) = (   0.7574361   0.5050149   0.2514739  )
        54           N   tau(  54) = (   0.5074781   0.5046170   0.2508338  )
        55           Al  tau(  55) = (   0.7585682   0.7566598   0.0041758  )
        56           N   tau(  56) = (   0.5115883   0.7646595   0.0092513  )
        57           Ti  tau(  57) = (   0.5051588   0.5091280   0.5143016  )
        58           N   tau(  58) = (   0.7595663   0.4979709   0.5046124  )
        59           Ti  tau(  59) = (   0.5036209   0.7583073   0.7544064  )
        60           N   tau(  60) = (   0.7588115   0.7481561   0.7671338  )
        61           Al  tau(  61) = (   0.7600078   0.5050748   0.7611910  )
        62           N   tau(  62) = (   0.5168862   0.5047892   0.7586418  )
        63           Ti  tau(  63) = (   0.7531967   0.7594960   0.5121018  )
        64           N   tau(  64) = (   0.4949159   0.7585605   0.4932999  )

     number of k points=     8  Gaussian smearing, width (Ry)=  0.0050
                       cart. coord. in units 2pi/alat
        k(    1) = (   0.0000000   0.0000000   0.0000000), wk =   0.2500000
        k(    2) = (   0.0000000   0.0000000  -0.5000000), wk =   0.2500000
        k(    3) = (   0.0000000  -0.5000000  -0.5000000), wk =   0.2500000
        k(    4) = (  -0.5000000  -0.5000000  -0.5000000), wk =   0.2500000
        k(    5) = (  -0.5000000   0.0000000   0.0000000), wk =   0.2500000
        k(    6) = (   0.0000000  -0.5000000   0.0000000), wk =   0.2500000
        k(    7) = (  -0.5000000   0.0000000   0.5000000), wk =   0.2500000
        k(    8) = (  -0.5000000   0.5000000   0.0000000), wk =   0.2500000

     Dense  grid:   236169 G-vectors     FFT dimensions: (  80,  80,  80)

     Estimated max dynamical RAM per process >     196.17 MB

     Estimated total dynamical RAM >       5.96 GB

     Check: negative core charge=   -0.000021

     Initial potential from superposition of free atoms

     starting charge     399.9395, renormalised to     400.0000
     Starting wfcs are  352 randomized atomic wfcs
     Checking if some PAW data can be deallocated... 

     total cpu time spent up to now is        3.9 secs

     Self-consistent Calculation

     iteration #  1     ecut=    60.00 Ry     beta= 0.20
     Davidson diagonalization with overlap
     ethr =  1.00E-02,  avg # of iterations =  2.0

     total cpu time spent up to now is       10.1 secs

     total energy              =   -4482.56963550 Ry
     estimated scf accuracy    <      18.66207239 Ry

     iteration #  2     ecut=    60.00 Ry     beta= 0.20
     Davidson diagonalization with overlap
     ethr =  4.67E-03,  avg # of iterations =  1.0

     total cpu time spent up to now is       15.1 secs

     total energy              =   -4478.00178465 Ry
     estimated scf accuracy    <      10.60021654 Ry

     iteration #  3     ecut=    60.00 Ry     beta= 0.20
     Davidson diagonalization with overlap
     ethr =  2.65E-03,  avg # of iterations =  3.0

     total cpu time spent up to now is       22.0 secs

     total energy              =   -4480.48416314 Ry
     estimated scf accuracy    <       0.61599101 Ry

     iteration #  4     ecut=    60.00 Ry     beta= 0.20
     Davidson diagonalization with overlap
     ethr =  1.54E-04,  avg # of iterations =  6.1

     total cpu time spent up to now is       29.5 secs

     total energy              =   -4480.55067482 Ry
     estimated scf accuracy    <       0.43308897 Ry

     iteration #  5     ecut=    60.00 Ry     beta= 0.20
     Davidson diagonalization with overlap
     ethr =  1.08E-04,  avg # of iterations =  1.2

     total cpu time spent up to now is       34.9 secs

     total energy              =   -4480.51710594 Ry
     estimated scf accuracy    <       0.22493970 Ry

     iteration #  6     ecut=    60.00 Ry     beta= 0.20
     Davidson diagonalization with overlap
     ethr =  5.62E-05,  avg # of iterations =  2.0

     total cpu time spent up to now is       40.9 secs

     total energy              =   -4480.51700150 Ry
     estimated scf accuracy    <       0.06870146 Ry

     iteration #  7     ecut=    60.00 Ry     beta= 0.20
     Davidson diagonalization with overlap
     ethr =  1.72E-05,  avg # of iterations =  2.4

     total cpu time spent up to now is       46.9 secs

     total energy              =   -4480.51789372 Ry
     estimated scf accuracy    <       0.01649388 Ry

     iteration #  8     ecut=    60.00 Ry     beta= 0.20
     Davidson diagonalization with overlap
     ethr =  4.12E-06,  avg # of iterations =  9.5

     total cpu time spent up to now is       57.3 secs

     total energy              =   -4480.51983777 Ry
     estimated scf accuracy    <       0.00899336 Ry

     iteration #  9     ecut=    60.00 Ry     beta= 0.20
     Davidson diagonalization with overlap
     ethr =  2.25E-06,  avg # of iterations =  2.0

     total cpu time spent up to now is       64.0 secs

     total energy              =   -4480.52128995 Ry
     estimated scf accuracy    <       0.00108947 Ry

     iteration # 10     ecut=    60.00 Ry     beta= 0.20
     Davidson diagonalization with overlap
     ethr =  2.72E-07,  avg # of iterations =  3.6

     total cpu time spent up to now is       70.8 secs

     total energy              =   -4480.52137450 Ry
     estimated scf accuracy    <       0.00050306 Ry

     iteration # 11     ecut=    60.00 Ry     beta= 0.20
     Davidson diagonalization with overlap
     ethr =  1.26E-07,  avg # of iterations =  2.0

     total cpu time spent up to now is       76.7 secs

     total energy              =   -4480.52128122 Ry
     estimated scf accuracy    <       0.00033151 Ry

     iteration # 12     ecut=    60.00 Ry     beta= 0.20
     Davidson diagonalization with overlap
     ethr =  8.29E-08,  avg # of iterations =  2.0

     total cpu time spent up to now is       83.3 secs

     total energy              =   -4480.52130684 Ry
     estimated scf accuracy    <       0.00009325 Ry

     iteration # 13     ecut=    60.00 Ry     beta= 0.20
     Davidson diagonalization with overlap
     c_bands:  1 eigenvalues not converged
     ethr =  2.33E-08,  avg # of iterations =  5.2

     total cpu time spent up to now is       91.6 secs

     total energy              =   -4480.52131831 Ry
     estimated scf accuracy    <       0.00001211 Ry

     iteration # 14     ecut=    60.00 Ry     beta= 0.20
     Davidson diagonalization with overlap
     ethr =  3.03E-09,  avg # of iterations =  6.2

     total cpu time spent up to now is       99.5 secs

     total energy              =   -4480.52131528 Ry
     estimated scf accuracy    <       0.00001170 Ry

     iteration # 15     ecut=    60.00 Ry     beta= 0.20
     Davidson diagonalization with overlap
     ethr =  2.93E-09,  avg # of iterations =  2.4

     total cpu time spent up to now is      105.8 secs

     total energy              =   -4480.52131627 Ry
     estimated scf accuracy    <       0.00000211 Ry

     iteration # 16     ecut=    60.00 Ry     beta= 0.20
     Davidson diagonalization with overlap
     ethr =  5.28E-10,  avg # of iterations =  4.9

     total cpu time spent up to now is      113.7 secs

     total energy              =   -4480.52131615 Ry
     estimated scf accuracy    <       0.00000263 Ry

     iteration # 17     ecut=    60.00 Ry     beta= 0.20
     Davidson diagonalization with overlap
     ethr =  5.28E-10,  avg # of iterations =  2.4

     total cpu time spent up to now is      120.1 secs

     total energy              =   -4480.52131643 Ry
     estimated scf accuracy    <       0.00000035 Ry

     iteration # 18     ecut=    60.00 Ry     beta= 0.20
     Davidson diagonalization with overlap
     ethr =  8.85E-11,  avg # of iterations =  2.0

     total cpu time spent up to now is      125.9 secs

     total energy              =   -4480.52131640 Ry
     estimated scf accuracy    <       0.00000014 Ry

     iteration # 19     ecut=    60.00 Ry     beta= 0.20
     Davidson diagonalization with overlap
     ethr =  3.49E-11,  avg # of iterations =  2.0

     total cpu time spent up to now is      131.9 secs

     total energy              =   -4480.52131641 Ry
     estimated scf accuracy    <       0.00000004 Ry

     iteration # 20     ecut=    60.00 Ry     beta= 0.20
     Davidson diagonalization with overlap
     ethr =  1.10E-11,  avg # of iterations =  5.2

     total cpu time spent up to now is      138.8 secs

     total energy              =   -4480.52131641 Ry
     estimated scf accuracy    <       0.00000002 Ry

     iteration # 21     ecut=    60.00 Ry     beta= 0.20
     Davidson diagonalization with overlap
     ethr =  4.21E-12,  avg # of iterations =  3.6

     total cpu time spent up to now is      145.2 secs

     End of self-consistent calculation

          k = 0.0000 0.0000 0.0000 ( 29423 PWs)   bands (ev):

   -42.5347 -42.2505 -42.1414 -42.0930 -41.9997 -41.9634 -41.9522 -41.9240
   -41.8942 -41.8787 -41.8615 -41.8385 -41.8200 -41.8076 -41.7688 -41.7405
   -18.9590 -18.8669 -18.8456 -18.7708 -18.7026 -18.6706 -18.6556 -18.6281
   -18.6128 -18.5832 -18.5775 -18.5305 -18.5147 -18.5028 -18.4884 -18.4765
   -18.4377 -18.4284 -18.4164 -18.4059 -18.3865 -18.3733 -18.3628 -18.3389
   -18.3178 -18.3075 -18.2954 -18.2807 -18.2558 -18.2245 -18.1992 -18.1858
   -18.1745 -18.1531 -18.1370 -18.1230 -18.1117 -18.0858 -18.0817 -18.0682
   -18.0451 -18.0191 -18.0130 -18.0007 -17.9926 -17.9851 -17.9646 -17.9291
    -2.9625  -1.7529  -1.6466  -1.4847  -1.4519  -1.3145  -1.2150  -0.5477
    -0.4782  -0.4281  -0.3978  -0.3605  -0.3133  -0.2931  -0.2668  -0.2205
    -0.1724  -0.1270  -0.0416  -0.0131   0.0990   0.1625   0.1963   0.2166
     0.2860   0.3567   0.4200   0.5270   0.6129   0.6389   0.7007   0.8328
     6.0617   6.1769   6.2272   6.2899   7.4861   7.5005   7.5813   7.6055
     7.7138   7.7187   7.8020   7.9413   8.0284   8.1050   8.1252   8.3099
     8.3365   8.3856   8.4804   8.5090   8.5919   8.6179   8.6864   8.7456
     8.8784   8.9211   9.0023   9.0437   9.1054   9.1457   9.1929   9.2514
     9.3736   9.4287   9.4638   9.5218   9.5916   9.8250   9.8669   9.9043
     9.9753   9.9970  10.0149  10.0473  10.0950  10.1353  10.1497  10.1889
    10.2810  10.3170  10.3848  10.4298  10.4849  10.5659  10.6487  10.7294
    10.8323  10.8897  10.9841  11.0508  11.0599  11.1737  11.1963  11.2655
    11.3284  11.4062  11.5138  11.5585  11.6319  11.6514  11.6702  11.7282
    11.7327  11.8019  11.8466  11.9227  12.0527  12.0827  12.1304  12.1833
    12.2570  12.3000  12.3367  12.3472  12.3945  12.4127  12.4462  12.4546
    12.5362  12.6477  12.6816  12.6972  12.7271  13.1843  13.5244  13.6114
    13.6800  13.6876  13.7163  14.5587  14.6147  14.7087  14.7715  14.8232
    15.1812  15.8776  15.9296  16.3411  16.5774  16.6121  16.7607  16.8110
    16.8693  16.9291  16.9621  17.0402  17.0975  17.1682  17.1997  17.2615
    17.2858  17.3169  17.3814  17.4175  17.4332  17.4639  17.4866  17.5596
    17.5664  17.5922  17.6102  17.6678  17.6807  17.7055  17.7262  17.7494
    17.7692  17.8320  17.8468  17.8662  17.9253  17.9677  17.9784  18.0130

          k = 0.0000 0.0000-0.5000 ( 29574 PWs)   bands (ev):

   -42.5347 -42.2505 -42.1415 -42.0931 -41.9997 -41.9634 -41.9522 -41.9241
   -41.8943 -41.8786 -41.8615 -41.8385 -41.8200 -41.8076 -41.7688 -41.7405
   -18.9589 -18.8665 -18.8439 -18.7715 -18.7027 -18.6715 -18.6557 -18.6278
   -18.6133 -18.5831 -18.5775 -18.5307 -18.5133 -18.5031 -18.4863 -18.4763
   -18.4401 -18.4282 -18.4164 -18.4066 -18.3873 -18.3732 -18.3628 -18.3378
   -18.3201 -18.3085 -18.2970 -18.2798 -18.2571 -18.2246 -18.1988 -18.1834
   -18.1756 -18.1528 -18.1350 -18.1226 -18.1115 -18.0871 -18.0812 -18.0681
   -18.0449 -18.0183 -18.0125 -18.0012 -17.9927 -17.9858 -17.9652 -17.9292
    -2.7214  -2.3144  -1.4556  -1.3149  -1.2772  -1.1458  -1.0799  -0.8818
    -0.8481  -0.7532  -0.5589  -0.4814  -0.2700  -0.1755  -0.1427  -0.0879
    -0.0709  -0.0360  -0.0159   0.0178   0.0433   0.1423   0.1862   0.2519
     0.2802   0.3209   0.4026   0.5215   0.6875   0.7266   0.7435   0.8431
     6.3620   6.5851   6.6589   6.8022   6.8345   7.1641   7.3625   7.5002
     7.5602   7.7017   7.7738   7.8106   7.9089   8.1191   8.2329   8.2567
     8.3303   8.3659   8.4376   8.4559   8.5367   8.5709   8.6067   8.6314
     8.7297   8.7812   8.8303   8.8995   8.9691   9.0696   9.1334   9.1787
     9.2819   9.4259   9.5387   9.6725   9.7989   9.8700   9.8902   9.9300
    10.0076  10.0476  10.0893  10.0992  10.1832  10.2046  10.2738  10.3274
    10.3730  10.5089  10.5602  10.5948  10.7137  10.7384  10.7455  10.9597
    10.9972  11.0173  11.0766  11.0905  11.1843  11.1904  11.2198  11.2476
    11.3153  11.3786  11.3875  11.4722  11.4847  11.5301  11.5567  11.5954
    11.6624  11.6874  11.7255  11.8216  11.8538  11.8835  11.9450  12.0116
    12.0536  12.0703  12.2092  12.2637  12.3317  12.3723  12.4570  12.5173
    12.6041  12.6231  12.6563  12.6798  13.0391  13.0472  13.1497  13.1757
    13.2171  14.4015  14.4586  14.5742  15.0707  15.1256  15.2821  15.3562
    15.3932  15.9081  16.0424  16.2947  16.3223  16.4027  16.4515  16.6709
    16.7913  16.8063  16.8493  16.8712  16.9470  16.9978  17.0246  17.0785
    17.1571  17.1800  17.2135  17.2858  17.3574  17.4043  17.4585  17.4898
    17.4953  17.5295  17.5516  17.6354  17.6694  17.7142  17.7255  17.8043
    17.8164  17.8704  17.8965  17.9430  17.9601  18.0231  18.0679  18.1015

          k = 0.0000-0.5000-0.5000 ( 29520 PWs)   bands (ev):

   -42.5347 -42.2505 -42.1413 -42.0932 -41.9993 -41.9624 -41.9527 -41.9262
   -41.8918 -41.8815 -41.8615 -41.8374 -41.8197 -41.8074 -41.7669 -41.7423
   -18.9588 -18.8651 -18.8437 -18.7604 -18.6915 -18.6593 -18.6558 -18.6270
   -18.5998 -18.5967 -18.5787 -18.5614 -18.5338 -18.5018 -18.4930 -18.4601
   -18.4502 -18.4315 -18.4184 -18.4095 -18.3930 -18.3802 -18.3680 -18.3470
   -18.3203 -18.3153 -18.3027 -18.2711 -18.2423 -18.2113 -18.2050 -18.1776
   -18.1532 -18.1309 -18.1243 -18.1085 -18.0995 -18.0935 -18.0685 -18.0613
   -18.0547 -18.0515 -18.0254 -18.0082 -17.9958 -17.9829 -17.9552 -17.9438
    -2.4715  -2.1850  -1.9228  -1.8602  -1.0808  -0.9269  -0.8009  -0.7568
    -0.6892  -0.6547  -0.5978  -0.5268  -0.4915  -0.2812  -0.2326  -0.1849
    -0.1489  -0.1400   0.0180   0.0453   0.1348   0.1445   0.2733   0.3054
     0.3453   0.3844   0.4414   0.4581   0.6182   0.6382   0.7435   0.8578
     6.3817   6.6820   6.8810   6.9736   7.0816   7.2606   7.4619   7.5080
     7.5308   7.6601   7.7394   7.8072   7.8591   7.9415   7.9807   8.0079
     8.0841   8.1623   8.2877   8.4018   8.4585   8.5195   8.5441   8.5604
     8.6461   8.7105   8.7614   8.9048   8.9788   9.1432   9.2802   9.3475
     9.5319   9.6303   9.6686   9.7413   9.8860   9.9525  10.0086  10.0363
    10.1108  10.1707  10.2334  10.2575  10.2686  10.3358  10.4613  10.5093
    10.5252  10.5611  10.6041  10.6314  10.6699  10.7253  10.7928  10.8187
    10.8892  10.9155  10.9860  11.0475  11.0692  11.1044  11.1514  11.1843
    11.2440  11.2994  11.3132  11.3901  11.4433  11.4624  11.4712  11.5419
    11.6077  11.7463  11.7948  11.8504  11.8847  11.9181  11.9461  11.9814
    12.0617  12.1332  12.1833  12.2057  12.2352  12.2652  12.3568  12.3716
    12.3903  12.4424  12.5060  12.6051  12.6596  12.6845  12.9541  12.9995
    14.6305  14.6464  14.7377  14.9610  15.0251  15.1283  15.4823  15.5298
    15.6267  15.7087  15.8826  15.9660  16.0133  16.0455  16.2495  16.3214
    16.4898  16.5379  16.5645  16.6494  16.7787  16.9153  16.9873  17.0102
    17.0667  17.1073  17.1205  17.2055  17.2100  17.3133  17.4750  17.5031
    17.5297  17.5713  17.6139  17.6304  17.7008  17.7958  17.8672  17.8722
    17.9089  17.9468  17.9839  18.0112  18.0658  18.1282  18.1747  18.1974

          k =-0.5000-0.5000-0.5000 ( 29464 PWs)   bands (ev):

   -42.5347 -42.2504 -42.1413 -42.0933 -41.9981 -41.9650 -41.9520 -41.9260
   -41.8919 -41.8809 -41.8611 -41.8372 -41.8199 -41.8074 -41.7667 -41.7426
   -18.9588 -18.8649 -18.8432 -18.7561 -18.6871 -18.6601 -18.6533 -18.6316
   -18.6045 -18.6031 -18.5898 -18.5401 -18.5104 -18.5020 -18.4888 -18.4770
   -18.4687 -18.4427 -18.4231 -18.4027 -18.4003 -18.3697 -18.3571 -18.3458
   -18.3290 -18.3174 -18.2933 -18.2661 -18.2418 -18.2073 -18.1971 -18.1851
   -18.1541 -18.1406 -18.1279 -18.1117 -18.1062 -18.0946 -18.0792 -18.0617
   -18.0543 -18.0486 -18.0185 -18.0070 -17.9946 -17.9751 -17.9535 -17.9419
    -2.3031  -2.0028  -1.8125  -1.6630  -1.5324  -1.5173  -1.3276  -1.0950
    -0.4621  -0.3931  -0.3342  -0.2833  -0.2724  -0.2303  -0.1182  -0.1017
    -0.0570   0.0096   0.0928   0.1351   0.1430   0.1674   0.2269   0.2509
     0.3187   0.3792   0.3942   0.4494   0.4887   0.5141   0.5992   0.6955
     6.7027   6.9012   7.0774   7.1003   7.1766   7.2062   7.2702   7.3166
     7.3409   7.4036   7.5279   7.6160   7.7684   7.8114   7.9422   8.0538
     8.0906   8.2063   8.2364   8.2636   8.3916   8.4386   8.5743   8.9119
     9.0673   9.1313   9.2258   9.3000   9.4026   9.4493   9.4791   9.5542
     9.5745   9.6685   9.7572   9.7676   9.8180   9.8923   9.9099   9.9564
     9.9671  10.0183  10.0418  10.0669  10.1075  10.1974  10.2265  10.2654
    10.3038  10.3126  10.3995  10.4460  10.5726  10.6059  10.6574  10.6978
    10.8286  10.8957  10.9414  10.9767  11.0222  11.0636  11.0973  11.1559
    11.1589  11.2556  11.2997  11.3534  11.3791  11.4185  11.5498  11.5833
    11.6155  11.6714  11.7917  11.8352  11.8637  11.8913  11.9327  12.0669
    12.1196  12.1675  12.2238  12.2445  12.3524  12.3769  12.4435  12.4708
    12.5004  12.5522  12.6158  12.7253  12.7755  12.7856  12.8485  12.9197
    15.0069  15.0449  15.0696  15.1676  15.2139  15.2581  15.3629  15.4190
    15.4857  15.6081  15.6398  15.8505  15.8857  15.9719  16.0034  16.1464
    16.2120  16.2324  16.5007  16.5617  16.6182  16.6660  16.6880  16.7272
    16.8570  16.9007  16.9243  16.9794  17.0446  17.0725  17.1377  17.5534
    17.6567  17.6886  17.7538  17.8306  17.8516  17.8850  17.9099  17.9628
    17.9937  18.0456  18.0981  18.1568  18.1746  18.2019  18.2191  18.2730

          k =-0.5000 0.0000 0.0000 ( 29574 PWs)   bands (ev):

   -42.5347 -42.2504 -42.1414 -42.0931 -41.9983 -41.9665 -41.9515 -41.9238
   -41.8936 -41.8787 -41.8610 -41.8384 -41.8203 -41.8076 -41.7686 -41.7408
   -18.9590 -18.8662 -18.8458 -18.7584 -18.6813 -18.6611 -18.6578 -18.6294
   -18.5983 -18.5914 -18.5847 -18.5700 -18.5453 -18.5028 -18.4758 -18.4720
   -18.4547 -18.4309 -18.4155 -18.4108 -18.3933 -18.3758 -18.3633 -18.3522
   -18.3173 -18.3010 -18.2773 -18.2640 -18.2474 -18.2180 -18.1941 -18.1752
   -18.1688 -18.1596 -18.1368 -18.1184 -18.1015 -18.0845 -18.0729 -18.0649
   -18.0556 -18.0245 -18.0170 -18.0043 -17.9983 -17.9901 -17.9714 -17.9286
    -2.7349  -2.2730  -1.5736  -1.4711  -1.1215  -1.1033  -1.0177  -0.9122
    -0.8138  -0.7081  -0.5525  -0.4642  -0.2301  -0.2146  -0.1498  -0.1180
    -0.1059  -0.0222   0.0688   0.1444   0.1498   0.1777   0.1921   0.2442
     0.3028   0.3694   0.3872   0.4950   0.5564   0.5863   0.6453   0.7252
     6.4607   6.5618   6.5884   6.8264   6.8472   7.0374   7.1120   7.2525
     7.5684   7.6778   7.7624   7.7896   7.9017   7.9885   8.1157   8.1911
     8.3186   8.4238   8.4650   8.5181   8.6027   8.6318   8.6959   8.7670
     8.7764   8.9592   8.9715   9.0221   9.0675   9.1464   9.2219   9.2817
     9.3145   9.4166   9.5204   9.5856   9.6050   9.9174   9.9897  10.1381
    10.1828  10.2279  10.2803  10.3295  10.3929  10.4268  10.4713  10.5630
    10.6023  10.6226  10.6601  10.7355  10.8036  10.8223  10.8488  10.8890
    10.9407  10.9800  11.0063  11.0523  11.0837  11.1026  11.1420  11.2193
    11.2826  11.2966  11.3355  11.3469  11.4348  11.4456  11.4764  11.4892
    11.5519  11.6015  11.6129  11.6562  11.7393  11.8106  11.8385  11.9118
    11.9243  11.9497  12.0403  12.0817  12.1957  12.2101  12.3221  12.3639
    12.4167  12.4529  12.5284  12.5941  13.0673  13.1237  13.1377  13.2101
    13.6087  14.1895  14.5463  14.7408  15.1462  15.2562  15.3264  15.5264
    15.5499  15.7030  15.7819  15.7943  15.9753  16.3056  16.3353  16.4969
    16.5403  16.6905  16.7805  16.8359  16.9388  16.9640  17.0904  17.1355
    17.1880  17.2546  17.3054  17.3898  17.4102  17.4303  17.4421  17.5493
    17.5896  17.6349  17.6811  17.7070  17.7348  17.7619  17.7718  17.8179
    17.8217  17.8722  17.9121  17.9681  17.9806  17.9914  18.0418  18.0973

          k = 0.0000-0.5000 0.0000 ( 29574 PWs)   bands (ev):

   -42.5347 -42.2505 -42.1413 -42.0932 -41.9993 -41.9624 -41.9527 -41.9261
   -41.8917 -41.8816 -41.8615 -41.8375 -41.8197 -41.8074 -41.7669 -41.7423
   -18.9590 -18.8655 -18.8453 -18.7609 -18.6911 -18.6588 -18.6559 -18.6271
   -18.6000 -18.5929 -18.5789 -18.5614 -18.5334 -18.5011 -18.4943 -18.4617
   -18.4537 -18.4328 -18.4155 -18.4086 -18.3930 -18.3809 -18.3677 -18.3468
   -18.3169 -18.3130 -18.3031 -18.2736 -18.2420 -18.2117 -18.2073 -18.1768
   -18.1532 -18.1312 -18.1209 -18.1072 -18.1005 -18.0930 -18.0744 -18.0613
   -18.0547 -18.0503 -18.0237 -18.0086 -17.9954 -17.9827 -17.9556 -17.9443
    -2.6645  -2.4291  -1.4822  -1.3505  -1.2006  -1.0534  -1.0412  -0.9146
    -0.8879  -0.7190  -0.5963  -0.4321  -0.2167  -0.1606  -0.1182  -0.0923
    -0.0342  -0.0138   0.0089   0.0733   0.1257   0.1726   0.2115   0.2547
     0.2678   0.3129   0.3595   0.4622   0.5544   0.6166   0.6296   0.8167
     6.3724   6.5498   6.7397   6.8285   6.8930   6.9356   7.1461   7.2419
     7.5964   7.7578   7.8006   7.8131   7.9324   7.9595   8.0517   8.0737
     8.2106   8.2366   8.4898   8.5452   8.5822   8.6412   8.7465   8.8514
     8.8865   8.9145   8.9372   9.0129   9.0555   9.1672   9.2035   9.3074
     9.3292   9.4569   9.5657   9.6726   9.7285   9.8731  10.0731  10.0986
    10.1820  10.2169  10.3080  10.3254  10.3469  10.3604  10.4510  10.4636
    10.4737  10.6092  10.6960  10.6978  10.7261  10.8359  10.8614  10.8858
    10.9185  10.9613  10.9700  11.0238  11.0420  11.0913  11.1384  11.1688
    11.2358  11.2878  11.2930  11.3978  11.4712  11.4737  11.5001  11.5318
    11.5912  11.6043  11.6683  11.6879  11.7567  11.8385  11.8502  11.8921
    11.9615  12.0279  12.0651  12.1647  12.2304  12.2420  12.2722  12.3128
    12.4136  12.4574  12.5208  12.6108  13.0774  13.1375  13.1635  13.1786
    13.8623  13.9547  14.7173  14.8936  14.9689  15.0648  15.3703  15.4903
    15.4955  15.5676  15.6209  16.0831  16.0969  16.1541  16.1770  16.5610
    16.6723  16.7604  16.7956  16.8324  16.9116  17.0292  17.0819  17.1417
    17.1588  17.2037  17.2244  17.3045  17.3679  17.4533  17.4839  17.4967
    17.5983  17.6396  17.6698  17.6929  17.7321  17.8087  17.8161  17.8497
    17.8862  17.9007  17.9422  17.9833  18.0043  18.0337  18.0552  18.1072

          k =-0.5000 0.0000 0.5000 ( 29520 PWs)   bands (ev):

   -42.5347 -42.2504 -42.1414 -42.0931 -41.9983 -41.9665 -41.9515 -41.9238
   -41.8937 -41.8787 -41.8610 -41.8384 -41.8203 -41.8076 -41.7686 -41.7408
   -18.9588 -18.8658 -18.8437 -18.7589 -18.6813 -18.6615 -18.6576 -18.6304
   -18.5977 -18.5934 -18.5853 -18.5699 -18.5448 -18.5061 -18.4763 -18.4725
   -18.4517 -18.4289 -18.4123 -18.4111 -18.3943 -18.3746 -18.3629 -18.3526
   -18.3194 -18.3017 -18.2804 -18.2629 -18.2477 -18.2177 -18.1948 -18.1752
   -18.1701 -18.1597 -18.1368 -18.1179 -18.1008 -18.0840 -18.0725 -18.0639
   -18.0554 -18.0238 -18.0171 -18.0045 -17.9979 -17.9900 -17.9724 -17.9287
    -2.5249  -2.1179  -1.9838  -1.6404  -1.1943  -1.0091  -0.9813  -0.8044
    -0.7371  -0.6553  -0.4880  -0.4578  -0.4255  -0.3071  -0.2793  -0.2211
    -0.1678  -0.0738   0.0925   0.1160   0.1281   0.2261   0.2486   0.3091
     0.3494   0.4079   0.4365   0.4819   0.6240   0.6698   0.6958   0.7381
     6.4448   6.6861   6.7983   6.9879   7.0463   7.3503   7.4269   7.5367
     7.5559   7.5846   7.6562   7.8210   7.9070   7.9317   7.9526   8.0548
     8.0964   8.1515   8.2272   8.2356   8.3952   8.4448   8.5046   8.5851
     8.6789   8.8851   8.9288   8.9879   9.0659   9.2216   9.2831   9.3890
     9.4800   9.5237   9.6028   9.7572   9.8142   9.8942   9.9998  10.0774
    10.1079  10.1648  10.2713  10.2848  10.3355  10.3668  10.4546  10.4812
    10.5186  10.5747  10.6276  10.6701  10.6805  10.7105  10.7990  10.8583
    10.9259  10.9390  10.9887  11.0147  11.0403  11.1022  11.1674  11.2165
    11.2333  11.3016  11.3115  11.3695  11.4025  11.4280  11.4751  11.5521
    11.6100  11.6405  11.7490  11.7896  11.8981  11.9658  11.9756  12.0556
    12.0869  12.1253  12.1698  12.2053  12.2432  12.2720  12.3300  12.3569
    12.4011  12.4096  12.4794  12.5264  12.6031  12.7261  12.8555  13.0406
    14.4235  14.5791  14.8476  14.8818  15.1737  15.3036  15.4314  15.5550
    15.6840  15.7527  15.8060  15.9688  16.0266  16.0643  16.3095  16.3638
    16.4024  16.5775  16.6901  16.6951  16.7379  16.7856  16.9755  17.0080
    17.0317  17.0856  17.1898  17.2686  17.2987  17.3664  17.4012  17.4661
    17.5072  17.5758  17.5864  17.6409  17.6756  17.7312  17.8125  17.8263
    17.8552  17.9097  17.9486  17.9923  18.0375  18.0939  18.1326  18.1910

          k =-0.5000 0.5000 0.0000 ( 29520 PWs)   bands (ev):

   -42.5347 -42.2504 -42.1413 -42.0933 -41.9981 -41.9650 -41.9520 -41.9261
   -41.8918 -41.8810 -41.8612 -41.8373 -41.8199 -41.8074 -41.7667 -41.7427
   -18.9591 -18.8654 -18.8457 -18.7557 -18.6871 -18.6606 -18.6509 -18.6288
   -18.6044 -18.6020 -18.5899 -18.5393 -18.5088 -18.5025 -18.4932 -18.4766
   -18.4713 -18.4439 -18.4243 -18.4038 -18.4005 -18.3720 -18.3563 -18.3455
   -18.3235 -18.3165 -18.2916 -18.2664 -18.2414 -18.2063 -18.1971 -18.1836
   -18.1553 -18.1409 -18.1266 -18.1108 -18.1078 -18.0948 -18.0843 -18.0630
   -18.0525 -18.0485 -18.0178 -18.0066 -17.9937 -17.9750 -17.9538 -17.9423
    -2.4609  -2.2185  -1.9823  -1.7522  -1.0841  -1.0399  -0.9210  -0.8118
    -0.6489  -0.5888  -0.5828  -0.4542  -0.3154  -0.2703  -0.2159  -0.1364
    -0.1232  -0.0190   0.0195   0.0879   0.1145   0.2398   0.2854   0.3052
     0.3457   0.4041   0.4142   0.4490   0.5156   0.5460   0.6305   0.6432
     6.5329   6.6080   6.8912   6.9804   7.0462   7.0748   7.2363   7.2872
     7.4162   7.5281   7.6069   7.7310   7.9035   7.9529   8.0361   8.0784
     8.1094   8.1472   8.2167   8.3764   8.4676   8.5096   8.6696   8.6822
     8.7647   8.8616   8.9483   9.0375   9.1782   9.3660   9.4436   9.5878
     9.6838   9.7928   9.8162   9.8907   9.9734   9.9931  10.0126  10.0635
    10.1505  10.1781  10.2820  10.3782  10.4213  10.4470  10.5363  10.5530
    10.5789  10.5975  10.6805  10.6932  10.7183  10.7709  10.8059  10.8490
    10.8993  10.9369  11.0011  11.0414  11.0587  11.0919  11.1231  11.1630
    11.1995  11.2245  11.2430  11.3422  11.3965  11.4097  11.4406  11.4745
    11.4898  11.5487  11.5686  11.6182  11.6579  11.7122  11.7560  11.8460
    11.8803  11.9026  11.9500  12.0123  12.0311  12.0906  12.2117  12.3278
    12.4249  12.4462  12.5890  12.6123  12.7343  12.8810  12.9676  13.0420
    14.8809  14.9488  14.9780  15.1079  15.1975  15.2158  15.3223  15.4521
    15.5064  15.5219  15.6365  15.7846  15.9899  16.1443  16.1524  16.1792
    16.2696  16.3201  16.4669  16.5963  16.6281  16.7262  16.8002  16.8607
    16.8832  16.9868  17.0813  17.1858  17.2791  17.3262  17.3835  17.6869
    17.7209  17.7507  17.7830  17.8259  17.8398  17.8663  17.8815  17.9167
    17.9645  17.9770  18.0325  18.0680  18.0831  18.1327  18.1601  18.1929

     the Fermi energy is    15.4908 ev

!    total energy              =   -4480.52131642 Ry
     total all-electron energy =    -38603.133902 Ry
     estimated scf accuracy    <          5.1E-09 Ry
     smearing contrib. (-TS)   =      -0.00360896 Ry
     internal energy E=F+TS    =   -4480.51770746 Ry

     The total energy is F=E-TS. E is the sum of the following terms:
     one-electron contribution =    -796.15309539 Ry
     hartree contribution      =     668.14311397 Ry
     xc contribution           =    -531.10826116 Ry
     ewald contribution        =   -1966.27598339 Ry
     one-center paw contrib.   =   -1855.12348149 Ry

     convergence has been achieved in  21 iterations

     Forces acting on atoms (cartesian axes, Ry/au):

     atom    1 type  1   force =     0.02206401    0.01875104    0.01856500
     atom    2 type  2   force =     0.00089884    0.03338791    0.03024891
     atom    3 type  1   force =     0.01824428   -0.00022182    0.00272655
     atom    4 type  2   force =    -0.00158886    0.00409723    0.00530351
     atom    5 type  3   force =    -0.00040408    0.02055394   -0.00335870
     atom    6 type  2   force =     0.02566838    0.01931008   -0.00255950
     atom    7 type  3   force =    -0.00110092   -0.00355938    0.02602858
     atom    8 type  2   force =     0.02593607    0.00007792    0.02162280
     atom    9 type  1   force =     0.02535766    0.02493700   -0.00253675
     atom   10 type  2   force =     0.00178074    0.01822977   -0.00497102
     atom   11 type  3   force =     0.02382010   -0.00588649   -0.02285386
     atom   12 type  2   force =     0.00448215    0.00556940   -0.02190217
     atom   13 type  3   force =    -0.00135471    0.02651468   -0.03004667
     atom   14 type  2   force =     0.03140893    0.03178490   -0.01683438
     atom   15 type  1   force =     0.00051358    0.00104419   -0.00058544
     atom   16 type  2   force =     0.01817922    0.00205791   -0.00110936
     atom   17 type  1   force =     0.02596380    0.00211170    0.02243727
     atom   18 type  2   force =    -0.00020910   -0.00570139    0.02443025
     atom   19 type  1   force =     0.01572861   -0.01487267    0.00071168
     atom   20 type  2   force =    -0.00093741   -0.02209945    0.00560903
     atom   21 type  1   force =     0.00070469   -0.00290370    0.00062360
     atom   22 type  2   force =     0.02275783    0.00085823   -0.00058024
     atom   23 type  3   force =    -0.00155429   -0.02748335    0.02493481
     atom   24 type  2   force =     0.02805546   -0.02392504    0.02039818
     atom   25 type  3   force =     0.02868271    0.00186789   -0.00337664
     atom   26 type  2   force =     0.00407588    0.00126646   -0.00514868
     atom   27 type  3   force =     0.02382072   -0.02149635   -0.02267854
     atom   28 type  2   force =     0.00548608   -0.03096952   -0.02388330
     atom   29 type  3   force =     0.00438928    0.00197997   -0.02900336
     atom   30 type  2   force =     0.02986648   -0.00563910   -0.02612421
     atom   31 type  1   force =    -0.00067415   -0.01693499    0.00214105
     atom   32 type  2   force =     0.02283216   -0.02731676   -0.00084938
     atom   33 type  1   force =     0.00260984    0.02700178    0.02473833
     atom   34 type  2   force =    -0.02647251    0.02520401    0.01957050
     atom   35 type  1   force =    -0.00057058    0.00165694    0.00062500
     atom   36 type  2   force =    -0.02034720   -0.00053886    0.00401454
     atom   37 type  1   force =    -0.02209063    0.01464310    0.00112221
     atom   38 type  2   force =    -0.00041508    0.01557996    0.00019560
     atom   39 type  3   force =    -0.02130457   -0.00295371    0.02897176
     atom   40 type  2   force =    -0.00450044    0.00104493    0.02229139
     atom   41 type  3   force =     0.00197857    0.03680220   -0.00029033
     atom   42 type  2   force =    -0.02849018    0.02384576   -0.00128109
     atom   43 type  3   force =    -0.00311621   -0.00021614   -0.02498857
     atom   44 type  2   force =    -0.02784925    0.00509967   -0.02501215
     atom   45 type  3   force =    -0.02145430    0.02270918   -0.02296027
     atom   46 type  2   force =    -0.00590762    0.03312799   -0.02693300
     atom   47 type  1   force =    -0.01594304   -0.00193517   -0.00198015
     atom   48 type  2   force =     0.00144897    0.00500781   -0.00504041
     atom   49 type  3   force =    -0.00293207   -0.00017204    0.04443724
     atom   50 type  2   force =    -0.03134663   -0.00277445    0.02071041
     atom   51 type  1   force =     0.00260732   -0.01569275    0.00009054
     atom   52 type  2   force =    -0.02164869   -0.01786936    0.00131931
     atom   53 type  1   force =    -0.02120468   -0.00018824   -0.00040457
     atom   54 type  2   force =     0.00064891    0.00157002    0.00627776
     atom   55 type  1   force =    -0.02304932   -0.02244098    0.02156251
     atom   56 type  2   force =    -0.00204009   -0.03198865    0.02100020
     atom   57 type  3   force =    -0.00481110   -0.00348075   -0.00236118
     atom   58 type  2   force =    -0.02914392   -0.00357758    0.00138851
     atom   59 type  3   force =     0.00184055   -0.03297995   -0.02116223
     atom   60 type  2   force =    -0.03298582   -0.02474482   -0.01934935
     atom   61 type  1   force =    -0.02632827    0.00328345   -0.01637614
     atom   62 type  2   force =     0.00179785   -0.00515445   -0.03666400
     atom   63 type  3   force =    -0.01789621   -0.02326660    0.00343348
     atom   64 type  2   force =    -0.00397774   -0.03199252   -0.00432487

     Total force =     0.245693     Total SCF correction =     0.000285


     Computing stress (Cartesian axis) and pressure

          total   stress  (Ry/bohr**3)                   (kbar)     P=      144.86
   0.00093115   0.00004499  -0.00004091          136.98        6.62       -6.02
   0.00004499   0.00093709  -0.00004796            6.62      137.85       -7.06
  -0.00004091  -0.00004796   0.00108605           -6.02       -7.06      159.76

 
     init_run     :      2.88s CPU      3.15s WALL (       1 calls)
     electrons    :    138.05s CPU    141.28s WALL (       1 calls)
     forces       :      1.61s CPU      1.66s WALL (       1 calls)
     stress       :     15.69s CPU     15.85s WALL (       1 calls)

     Called by init_run:
     wfcinit      :      2.43s CPU      2.53s WALL (       1 calls)
     potinit      :      0.21s CPU      0.22s WALL (       1 calls)
     hinit0       :      0.12s CPU      0.25s WALL (       1 calls)

     Called by electrons:
     c_bands      :    117.47s CPU    119.73s WALL (      21 calls)
     sum_band     :     14.35s CPU     14.86s WALL (      21 calls)
     v_of_rho     :      0.79s CPU      0.80s WALL (      22 calls)
     newd         :      1.22s CPU      1.50s WALL (      22 calls)
     PAW_pot      :      3.47s CPU      3.53s WALL (      22 calls)
     mix_rho      :      0.95s CPU      1.03s WALL (      21 calls)

     Called by c_bands:
     init_us_2    :      1.71s CPU      1.74s WALL (      90 calls)
     init_us_2:cp :      1.71s CPU      1.74s WALL (      90 calls)
     cegterg      :    106.38s CPU    108.54s WALL (      42 calls)

     Called by *egterg:
     cdiaghg      :     10.22s CPU     10.40s WALL (     200 calls)
     h_psi        :     54.64s CPU     55.54s WALL (     202 calls)
     s_psi        :     13.71s CPU     13.82s WALL (     202 calls)
     g_psi        :      0.25s CPU      0.26s WALL (     158 calls)

     Called by h_psi:
     h_psi:calbec :     13.31s CPU     13.42s WALL (     202 calls)
     vloc_psi     :     26.99s CPU     27.47s WALL (     202 calls)
     add_vuspsi   :     13.84s CPU     13.98s WALL (     202 calls)

     General routines
     calbec       :     19.90s CPU     20.10s WALL (     254 calls)
     fft          :      0.38s CPU      0.51s WALL (     267 calls)
     ffts         :      0.47s CPU      0.48s WALL (     439 calls)
     fftw         :     27.83s CPU     28.31s WALL (   59644 calls)
 
     Parallel routines
 
     PWSCF        :   2m38.46s CPU   2m42.84s WALL

 
   This run was terminated on:  16:55: 1  11May2026            

=------------------------------------------------------------------------------=
   JOB DONE.
=------------------------------------------------------------------------------=
