
     Program PWSCF v.7.1 starts on 11May2026 at 16:55:11 

     This program is part of the open-source Quantum ESPRESSO suite
     for quantum simulation of materials; please cite
         "P. Giannozzi et al., J. Phys.:Condens. Matter 21 395502 (2009);
         "P. Giannozzi et al., J. Phys.:Condens. Matter 29 465901 (2017);
         "P. Giannozzi et al., J. Chem. Phys. 152 154105 (2020);
          URL http://www.quantum-espresso.org", 
     in publications or presentations arising from this work. More details at
     http://www.quantum-espresso.org/quote

     Parallel version (MPI & OpenMP), running on      32 processor cores
     Number of MPI processes:                32
     Threads/MPI process:                     1

     MPI processes distributed on     1 nodes
     91381 MiB available memory on the printing compute node when the environment starts
 
     Reading input from TiAlN_x05finalrelaxedresult83931.in

     Current dimensions of program PWSCF are:
     Max number of different atomic species (ntypx) = 10
     Max number of k-points (npk) = 150000
     Max angular momentum in pseudopotentials (lmaxx) =  4
     file Al.pbe-n-kjpaw_psl.1.0.0.UPF: wavefunction(s)  3S 3P renormalized
     file N.pbe-n-kjpaw_psl.1.0.0.UPF: wavefunction(s)  2S renormalized
     file Ti.pbe-spn-kjpaw_psl.1.0.0.UPF: wavefunction(s)  3S 3P 3D renormalized
 
     K-points division:     npool     =       4
     R & G space division:  proc/nbgrp/npool/nimage =       8
     Subspace diagonalization in iterative solution of the eigenvalue problem:
     one sub-group per band group will be used
     scalapack distributed-memory algorithm (size of sub-group:  2*  2 procs)

 
     Parallelization info
     --------------------
     sticks:   dense  smooth     PW     G-vecs:    dense   smooth      PW
     Min         601     601    164                31341    31341    4447
     Max         602     602    165                31346    31346    4450
     Sum        4809    4809   1313               250743   250743   35585
 
     Using Slab Decomposition
 


     bravais-lattice index     =            0
     lattice parameter (alat)  =      15.8607  a.u.
     unit-cell volume          =    3989.9164 (a.u.)^3
     number of atoms/cell      =           64
     number of atomic types    =            3
     number of electrons       =       400.00
     number of Kohn-Sham states=          240
     kinetic-energy cutoff     =      60.0000  Ry
     charge density cutoff     =     240.0000  Ry
     scf convergence threshold =      1.0E-08
     mixing beta               =       0.2000
     number of iterations used =            8  local-TF  mixing
     Exchange-correlation= SLA  PW   PBX  PBC
                           (   1   4   3   4   0   0   0)

     celldm(1)=  15.860660  celldm(2)=   0.000000  celldm(3)=   0.000000
     celldm(4)=   0.000000  celldm(5)=   0.000000  celldm(6)=   0.000000

     crystal axes: (cart. coord. in units of alat)
               a(1) = (   1.000000   0.000000   0.000000 )  
               a(2) = (   0.000000   1.000000   0.000000 )  
               a(3) = (   0.000000   0.000000   1.000000 )  

     reciprocal axes: (cart. coord. in units 2 pi/alat)
               b(1) = (  1.000000  0.000000  0.000000 )  
               b(2) = (  0.000000  1.000000  0.000000 )  
               b(3) = (  0.000000  0.000000  1.000000 )  


     PseudoPot. # 1 for Al read from file:
     ../../../pseudo/Al.pbe-n-kjpaw_psl.1.0.0.UPF
     MD5 check sum: 502b6b27b9c6270cab5dd1084b96fa6d
     Pseudo is Projector augmented-wave + core cor, Zval =  3.0
     Generated using &quot;atomic&quot; code by A. Dal Corso  v.6.3
     Shape of augmentation charge: PSQ
     Using radial grid of 1135 points,  6 beta functions with: 
                l(1) =   0
                l(2) =   0
                l(3) =   1
                l(4) =   1
                l(5) =   2
                l(6) =   2
     Q(r) pseudized with 0 coefficients 


     PseudoPot. # 2 for N  read from file:
     ../../../pseudo/N.pbe-n-kjpaw_psl.1.0.0.UPF
     MD5 check sum: 14c48229446f9f2d411169a3abcbc3fa
     Pseudo is Projector augmented-wave + core cor, Zval =  5.0
     Generated using &quot;atomic&quot; code by A. Dal Corso  v.6.3
     Shape of augmentation charge: PSQ
     Using radial grid of 1085 points,  4 beta functions with: 
                l(1) =   0
                l(2) =   0
                l(3) =   1
                l(4) =   1
     Q(r) pseudized with 0 coefficients 


     PseudoPot. # 3 for Ti read from file:
     ../../../pseudo/Ti.pbe-spn-kjpaw_psl.1.0.0.UPF
     MD5 check sum: 01f69b0d8ba4438b2e03ac6ea4af1c0b
     Pseudo is Projector augmented-wave + core cor, Zval = 12.0
     Generated using &quot;atomic&quot; code by A. Dal Corso  v.6.2.2
     Shape of augmentation charge: PSQ
     Using radial grid of 1177 points,  6 beta functions with: 
                l(1) =   0
                l(2) =   0
                l(3) =   1
                l(4) =   1
                l(5) =   2
                l(6) =   2
     Q(r) pseudized with 0 coefficients 


     atomic species   valence    mass     pseudopotential
        Al             3.00    26.98200     Al( 1.00)
        N              5.00    14.00700     N ( 1.00)
        Ti            12.00    47.86700     Ti( 1.00)

     No symmetry found



   Cartesian axes

     site n.     atom                  positions (alat units)
         1           Al  tau(   1) = (  -0.0045552  -0.0011932   0.0040955  )
         2           N   tau(   2) = (   0.2438092  -0.0009163   0.0018168  )
         3           Al  tau(   3) = (  -0.0019900   0.2494077   0.2473791  )
         4           N   tau(   4) = (   0.2475660   0.2534613   0.2533850  )
         5           Ti  tau(   5) = (   0.2536087   0.0000426   0.2421034  )
         6           N   tau(   6) = (  -0.0036280   0.0003568   0.2445651  )
         7           Ti  tau(   7) = (   0.2523633   0.2480869  -0.0053126  )
         8           N   tau(   8) = (  -0.0021174   0.2434873   0.0077361  )
         9           Al  tau(   9) = (   0.0013505   0.0021421   0.4890691  )
        10           N   tau(  10) = (   0.2403818   0.0013894   0.4916238  )
        11           Ti  tau(  11) = (   0.0040332   0.2478855   0.7432678  )
        12           N   tau(  12) = (   0.2459715   0.2492535   0.7282818  )
        13           Ti  tau(  13) = (   0.2513977  -0.0002937   0.7457989  )
        14           N   tau(  14) = (  -0.0019174   0.0002494   0.7468707  )
        15           Al  tau(  15) = (   0.2466650   0.2468162   0.4889292  )
        16           N   tau(  16) = (   0.0017878   0.2418105   0.4863736  )
        17           Al  tau(  17) = (  -0.0026085   0.4969830   0.0055367  )
        18           N   tau(  18) = (   0.2356177   0.4958059   0.0095948  )
        19           Al  tau(  19) = (  -0.0022616   0.7417476   0.2463821  )
        20           N   tau(  20) = (   0.2476652   0.7365687   0.2518155  )
        21           Al  tau(  21) = (   0.2460921   0.4949481   0.2491383  )
        22           N   tau(  22) = (  -0.0036258   0.4954935   0.2433310  )
        23           Ti  tau(  23) = (   0.2512540   0.7421242  -0.0061894  )
        24           N   tau(  24) = (  -0.0045835   0.7458443   0.0080775  )
        25           Ti  tau(  25) = (  -0.0005497   0.4993293   0.5043114  )
        26           N   tau(  26) = (   0.2452129   0.4944684   0.4873263  )
        27           Ti  tau(  27) = (   0.0013652   0.7420957   0.7397028  )
        28           N   tau(  28) = (   0.2458814   0.7408651   0.7295958  )
        29           Ti  tau(  29) = (   0.2493021   0.4956030   0.7454570  )
        30           N   tau(  30) = (  -0.0075963   0.4947661   0.7552680  )
        31           Al  tau(  31) = (   0.2454034   0.7444461   0.4885077  )
        32           N   tau(  32) = (   0.0054497   0.7519956   0.4849374  )
        33           Al  tau(  33) = (   0.5022732  -0.0030399   0.0053756  )
        34           N   tau(  34) = (   0.7450422  -0.0055168   0.0071995  )
        35           Al  tau(  35) = (   0.4976303   0.2508806   0.2511401  )
        36           N   tau(  36) = (   0.7423340   0.2499057   0.2518615  )
        37           Al  tau(  37) = (   0.7438725   0.0001993   0.2471265  )
        38           N   tau(  38) = (   0.5009210  -0.0005181   0.2422492  )
        39           Ti  tau(  39) = (   0.7370807   0.2483403  -0.0074507  )
        40           N   tau(  40) = (   0.4964302   0.2364043   0.0111423  )
        41           Ti  tau(  41) = (   0.4984534  -0.0043698   0.5044587  )
        42           N   tau(  42) = (   0.7520388   0.0078839   0.4859749  )
        43           Ti  tau(  43) = (   0.4910218   0.2473692   0.7435445  )
        44           N   tau(  44) = (   0.7437609   0.2553638   0.7330887  )
        45           Ti  tau(  45) = (   0.7380094  -0.0028052   0.7374748  )
        46           N   tau(  46) = (   0.4968059   0.0003879   0.7575123  )
        47           Al  tau(  47) = (   0.7440301   0.2481670   0.4910532  )
        48           N   tau(  48) = (   0.4929945   0.2459666   0.4860270  )
        49           Ti  tau(  49) = (   0.4877790   0.4918468  -0.0076821  )
        50           N   tau(  50) = (   0.7482763   0.4996542   0.0018750  )
        51           Al  tau(  51) = (   0.4978366   0.7382431   0.2457685  )
        52           N   tau(  52) = (   0.7420477   0.7404579   0.2449605  )
        53           Al  tau(  53) = (   0.7424373   0.4950146   0.2464942  )
        54           N   tau(  54) = (   0.4974291   0.4946246   0.2458668  )
        55           Al  tau(  55) = (   0.7435470   0.7416765   0.0040931  )
        56           N   tau(  56) = (   0.5014578   0.7495177   0.0090681  )
        57           Ti  tau(  57) = (   0.4951557   0.4990462   0.5041174  )
        58           N   tau(  58) = (   0.7445253   0.4881101   0.4946201  )
        59           Ti  tau(  59) = (   0.4936482   0.7432913   0.7394676  )
        60           N   tau(  60) = (   0.7437856   0.7333411   0.7519430  )
        61           Al  tau(  61) = (   0.7449581   0.4950733   0.7461179  )
        62           N   tau(  62) = (   0.5066509   0.4947934   0.7436191  )
        63           Ti  tau(  63) = (   0.7382819   0.7444565   0.5019611  )
        64           N   tau(  64) = (   0.4851156   0.7435395   0.4835316  )

     number of k points=     8  Gaussian smearing, width (Ry)=  0.0050
                       cart. coord. in units 2pi/alat
        k(    1) = (   0.0000000   0.0000000   0.0000000), wk =   0.2500000
        k(    2) = (   0.0000000   0.0000000  -0.5000000), wk =   0.2500000
        k(    3) = (   0.0000000  -0.5000000  -0.5000000), wk =   0.2500000
        k(    4) = (  -0.5000000  -0.5000000  -0.5000000), wk =   0.2500000
        k(    5) = (  -0.5000000   0.0000000   0.0000000), wk =   0.2500000
        k(    6) = (   0.0000000  -0.5000000   0.0000000), wk =   0.2500000
        k(    7) = (  -0.5000000   0.0000000   0.5000000), wk =   0.2500000
        k(    8) = (  -0.5000000   0.5000000   0.0000000), wk =   0.2500000

     Dense  grid:   250743 G-vectors     FFT dimensions: (  80,  80,  80)

     Estimated max dynamical RAM per process >     207.45 MB

     Estimated total dynamical RAM >       6.30 GB

     Check: negative core charge=   -0.000021

     Initial potential from superposition of free atoms

     starting charge     399.9395, renormalised to     400.0000
     Starting wfcs are  352 randomized atomic wfcs
     Checking if some PAW data can be deallocated... 

     total cpu time spent up to now is        3.6 secs

     Self-consistent Calculation

     iteration #  1     ecut=    60.00 Ry     beta= 0.20
     Davidson diagonalization with overlap
     ethr =  1.00E-02,  avg # of iterations =  2.0

     total cpu time spent up to now is       10.2 secs

     total energy              =   -4482.59759641 Ry
     estimated scf accuracy    <      18.71622212 Ry

     iteration #  2     ecut=    60.00 Ry     beta= 0.20
     Davidson diagonalization with overlap
     ethr =  4.68E-03,  avg # of iterations =  1.0

     total cpu time spent up to now is       15.4 secs

     total energy              =   -4478.11122084 Ry
     estimated scf accuracy    <      10.60877901 Ry

     iteration #  3     ecut=    60.00 Ry     beta= 0.20
     Davidson diagonalization with overlap
     ethr =  2.65E-03,  avg # of iterations =  3.1

     total cpu time spent up to now is       22.8 secs

     total energy              =   -4480.57576529 Ry
     estimated scf accuracy    <       0.62895449 Ry

     iteration #  4     ecut=    60.00 Ry     beta= 0.20
     Davidson diagonalization with overlap
     ethr =  1.57E-04,  avg # of iterations =  6.8

     total cpu time spent up to now is       31.1 secs

     total energy              =   -4480.64802053 Ry
     estimated scf accuracy    <       0.41557789 Ry

     iteration #  5     ecut=    60.00 Ry     beta= 0.20
     Davidson diagonalization with overlap
     ethr =  1.04E-04,  avg # of iterations =  1.2

     total cpu time spent up to now is       36.9 secs

     total energy              =   -4480.61949033 Ry
     estimated scf accuracy    <       0.20957864 Ry

     iteration #  6     ecut=    60.00 Ry     beta= 0.20
     Davidson diagonalization with overlap
     ethr =  5.24E-05,  avg # of iterations =  2.0

     total cpu time spent up to now is       43.4 secs

     total energy              =   -4480.62186351 Ry
     estimated scf accuracy    <       0.06970226 Ry

     iteration #  7     ecut=    60.00 Ry     beta= 0.20
     Davidson diagonalization with overlap
     ethr =  1.74E-05,  avg # of iterations =  2.4

     total cpu time spent up to now is       49.4 secs

     total energy              =   -4480.61959209 Ry
     estimated scf accuracy    <       0.01883664 Ry

     iteration #  8     ecut=    60.00 Ry     beta= 0.20
     Davidson diagonalization with overlap
     c_bands:  2 eigenvalues not converged
     ethr =  4.71E-06,  avg # of iterations = 10.0

     total cpu time spent up to now is       61.3 secs

     total energy              =   -4480.62310119 Ry
     estimated scf accuracy    <       0.00788227 Ry

     iteration #  9     ecut=    60.00 Ry     beta= 0.20
     Davidson diagonalization with overlap
     c_bands:  1 eigenvalues not converged
     ethr =  1.97E-06,  avg # of iterations =  5.0

     total cpu time spent up to now is       70.6 secs

     total energy              =   -4480.62407122 Ry
     estimated scf accuracy    <       0.00092856 Ry

     iteration # 10     ecut=    60.00 Ry     beta= 0.20
     Davidson diagonalization with overlap
     c_bands:  2 eigenvalues not converged
     ethr =  2.32E-07,  avg # of iterations =  8.0

     total cpu time spent up to now is       81.3 secs

     total energy              =   -4480.62417196 Ry
     estimated scf accuracy    <       0.00055597 Ry

     iteration # 11     ecut=    60.00 Ry     beta= 0.20
     Davidson diagonalization with overlap
     ethr =  1.39E-07,  avg # of iterations =  1.0

     total cpu time spent up to now is       86.6 secs

     total energy              =   -4480.62411975 Ry
     estimated scf accuracy    <       0.00026541 Ry

     iteration # 12     ecut=    60.00 Ry     beta= 0.20
     Davidson diagonalization with overlap
     ethr =  6.64E-08,  avg # of iterations =  2.5

     total cpu time spent up to now is       93.3 secs

     total energy              =   -4480.62411685 Ry
     estimated scf accuracy    <       0.00010326 Ry

     iteration # 13     ecut=    60.00 Ry     beta= 0.20
     Davidson diagonalization with overlap
     ethr =  2.58E-08,  avg # of iterations =  2.4

     total cpu time spent up to now is       99.9 secs

     total energy              =   -4480.62412702 Ry
     estimated scf accuracy    <       0.00001645 Ry

     iteration # 14     ecut=    60.00 Ry     beta= 0.20
     Davidson diagonalization with overlap
     ethr =  4.11E-09,  avg # of iterations =  4.6

     total cpu time spent up to now is      107.4 secs

     total energy              =   -4480.62412677 Ry
     estimated scf accuracy    <       0.00000721 Ry

     iteration # 15     ecut=    60.00 Ry     beta= 0.20
     Davidson diagonalization with overlap
     ethr =  1.80E-09,  avg # of iterations =  5.1

     total cpu time spent up to now is      114.8 secs

     total energy              =   -4480.62412748 Ry
     estimated scf accuracy    <       0.00000131 Ry

     iteration # 16     ecut=    60.00 Ry     beta= 0.20
     Davidson diagonalization with overlap
     ethr =  3.28E-10,  avg # of iterations =  4.4

     total cpu time spent up to now is      123.1 secs

     total energy              =   -4480.62412752 Ry
     estimated scf accuracy    <       0.00000060 Ry

     iteration # 17     ecut=    60.00 Ry     beta= 0.20
     Davidson diagonalization with overlap
     ethr =  1.49E-10,  avg # of iterations =  2.0

     total cpu time spent up to now is      129.0 secs

     total energy              =   -4480.62412746 Ry
     estimated scf accuracy    <       0.00000023 Ry

     iteration # 18     ecut=    60.00 Ry     beta= 0.20
     Davidson diagonalization with overlap
     ethr =  5.66E-11,  avg # of iterations =  2.5

     total cpu time spent up to now is      135.8 secs

     total energy              =   -4480.62412748 Ry
     estimated scf accuracy    <       0.00000004 Ry

     iteration # 19     ecut=    60.00 Ry     beta= 0.20
     Davidson diagonalization with overlap
     ethr =  1.12E-11,  avg # of iterations =  5.1

     total cpu time spent up to now is      143.5 secs

     total energy              =   -4480.62412749 Ry
     estimated scf accuracy    <       0.00000002 Ry

     iteration # 20     ecut=    60.00 Ry     beta= 0.20
     Davidson diagonalization with overlap
     ethr =  5.03E-12,  avg # of iterations =  1.8

     total cpu time spent up to now is      149.4 secs

     total energy              =   -4480.62412749 Ry
     estimated scf accuracy    <       0.00000001 Ry

     iteration # 21     ecut=    60.00 Ry     beta= 0.20
     Davidson diagonalization with overlap
     ethr =  2.74E-12,  avg # of iterations =  2.0

     total cpu time spent up to now is      155.7 secs

     End of self-consistent calculation

          k = 0.0000 0.0000 0.0000 ( 31439 PWs)   bands (ev):

   -43.6052 -43.4370 -43.2385 -43.2258 -43.2070 -43.1770 -43.1493 -43.1223
   -43.0351 -43.0184 -42.9892 -42.9726 -42.9539 -42.9507 -42.9395 -42.9224
   -19.9938 -19.9167 -19.8841 -19.8283 -19.7732 -19.7465 -19.7238 -19.7083
   -19.6740 -19.6474 -19.6393 -19.6153 -19.5964 -19.5880 -19.5788 -19.5555
   -19.5424 -19.5326 -19.5212 -19.5140 -19.4922 -19.4684 -19.4599 -19.4541
   -19.4363 -19.4170 -19.4110 -19.3977 -19.3813 -19.3650 -19.3506 -19.3187
   -19.3155 -19.3089 -19.2693 -19.2644 -19.2527 -19.2335 -19.2301 -19.2011
   -19.1743 -19.1632 -19.1592 -19.1538 -19.1511 -19.1446 -19.1192 -19.1027
    -3.4733  -2.3230  -2.2414  -2.1163  -2.1056  -2.0084  -1.9023  -1.3424
    -1.1885  -1.1402  -1.1225  -1.0652  -1.0419  -1.0082  -0.9928  -0.9631
    -0.9404  -0.8672  -0.8274  -0.7401  -0.6516  -0.6266  -0.5894  -0.5501
    -0.4919  -0.4509  -0.3625  -0.2601  -0.2229  -0.1569  -0.1080  -0.0478
     5.4797   5.5113   5.5650   5.5915   6.8034   6.8346   6.9034   6.9210
     6.9542   7.0919   7.1474   7.1766   7.2180   7.3445   7.3795   7.6211
     7.6694   7.7057   7.7368   7.7873   7.8485   7.8573   7.9577   7.9855
     8.1585   8.1715   8.2280   8.2666   8.3381   8.4074   8.4554   8.5334
     8.6075   8.6675   8.7353   8.7519   8.8128   9.0630   9.0859   9.1223
     9.1728   9.2105   9.2315   9.2642   9.2783   9.3288   9.4072   9.4170
     9.4325   9.5290   9.5725   9.6601   9.7511   9.8391   9.8796   9.9335
    10.0155  10.0719  10.1396  10.1823  10.2588  10.3656  10.4491  10.4842
    10.5343  10.5689  10.6066  10.6578  10.7041  10.7352  10.7542  10.8584
    10.8958  10.9514  11.0368  11.1295  11.1742  11.2527  11.2626  11.3311
    11.3482  11.4139  11.4582  11.4674  11.4964  11.5333  11.5587  11.5669
    11.6588  11.6882  11.7002  11.7029  11.7400  12.4367  12.6169  12.6549
    12.7269  12.7393  12.8147  13.6327  13.6788  13.7935  13.8311  13.9696
    14.1595  14.8208  14.8460  15.2535  15.5021  15.5488  15.6127  15.6428
    15.7668  15.7730  15.8556  15.8718  15.9498  15.9692  16.0046  16.0644
    16.1159  16.1425  16.1835  16.1977  16.2347  16.2510  16.2694  16.3060
    16.3700  16.3901  16.4064  16.4371  16.4647  16.4848  16.4972  16.5159
    16.5340  16.5978  16.6203  16.6435  16.6827  16.6965  16.7091  16.7404

          k = 0.0000 0.0000-0.5000 ( 31464 PWs)   bands (ev):

   -43.6052 -43.4370 -43.2385 -43.2258 -43.2070 -43.1770 -43.1493 -43.1223
   -43.0350 -43.0185 -42.9893 -42.9725 -42.9540 -42.9507 -42.9395 -42.9224
   -19.9937 -19.9167 -19.8829 -19.8287 -19.7733 -19.7465 -19.7236 -19.7091
   -19.6740 -19.6476 -19.6392 -19.6159 -19.5925 -19.5880 -19.5781 -19.5565
   -19.5458 -19.5322 -19.5205 -19.5144 -19.4911 -19.4709 -19.4590 -19.4538
   -19.4368 -19.4177 -19.4115 -19.3975 -19.3814 -19.3652 -19.3507 -19.3189
   -19.3149 -19.3102 -19.2684 -19.2636 -19.2524 -19.2353 -19.2298 -19.1968
   -19.1757 -19.1649 -19.1580 -19.1527 -19.1514 -19.1455 -19.1192 -19.1033
    -3.2831  -2.7849  -2.1471  -2.0035  -1.9565  -1.8776  -1.6932  -1.5438
    -1.4735  -1.4312  -1.2973  -1.1673  -1.0592  -0.9627  -0.9112  -0.8957
    -0.8631  -0.8086  -0.7647  -0.7440  -0.6832  -0.6704  -0.5694  -0.4964
    -0.4128  -0.4007  -0.3236  -0.2399  -0.1877  -0.1343  -0.1197  -0.0463
     5.8299   5.8664   5.9118   6.0267   6.2030   6.5123   6.8054   6.8181
     6.8601   7.0103   7.0906   7.1288   7.1612   7.3950   7.4915   7.5094
     7.6087   7.6273   7.6627   7.7096   7.7602   7.8198   7.8605   7.9303
     7.9541   8.0834   8.1241   8.1552   8.1982   8.2725   8.3087   8.3499
     8.5168   8.6279   8.7901   8.8870   9.0608   9.0844   9.1659   9.1772
     9.2674   9.3294   9.3447   9.3831   9.3930   9.4489   9.5141   9.5916
     9.6692   9.7274   9.7583   9.8570   9.8943   9.9317   9.9723  10.0780
    10.1339  10.2312  10.2871  10.3395  10.3542  10.3907  10.4226  10.4239
    10.4946  10.5086  10.5658  10.5785  10.6204  10.6448  10.6866  10.7387
    10.7494  10.8064  10.8488  10.9333  10.9718  11.0061  11.0312  11.1063
    11.1755  11.2125  11.2200  11.3314  11.4277  11.5062  11.5743  11.6000
    11.6665  11.7049  11.7205  11.7582  12.1229  12.1735  12.2249  12.2858
    12.4668  13.4393  13.5325  13.6523  14.1127  14.1477  14.3207  14.3548
    14.3816  14.8969  14.9401  15.1889  15.2190  15.2809  15.3920  15.5199
    15.6089  15.6417  15.6720  15.7839  15.8119  15.8718  15.9037  15.9190
    15.9740  16.0302  16.0466  16.0902  16.1579  16.2130  16.2243  16.2613
    16.2785  16.3252  16.4123  16.4418  16.4787  16.4899  16.5107  16.5541
    16.6169  16.6227  16.6498  16.6767  16.6901  16.7821  16.7869  16.8271

          k = 0.0000-0.5000-0.5000 ( 31256 PWs)   bands (ev):

   -43.6052 -43.4369 -43.2378 -43.2263 -43.2075 -43.1766 -43.1490 -43.1225
   -43.0344 -43.0185 -42.9926 -42.9704 -42.9539 -42.9501 -42.9361 -42.9256
   -19.9937 -19.9164 -19.8825 -19.8249 -19.7709 -19.7463 -19.7172 -19.6917
   -19.6661 -19.6579 -19.6435 -19.6260 -19.6056 -19.5836 -19.5816 -19.5595
   -19.5526 -19.5446 -19.5290 -19.5162 -19.4861 -19.4639 -19.4575 -19.4540
   -19.4433 -19.4358 -19.3986 -19.3975 -19.3889 -19.3498 -19.3411 -19.3305
   -19.3018 -19.2924 -19.2758 -19.2539 -19.2432 -19.2253 -19.2110 -19.2036
   -19.1921 -19.1785 -19.1704 -19.1574 -19.1431 -19.1404 -19.1195 -19.1098
    -2.9710  -2.8733  -2.4664  -2.3587  -1.7821  -1.6534  -1.6413  -1.6042
    -1.4270  -1.2829  -1.2585  -1.1898  -1.1364  -1.0615  -0.9596  -0.9125
    -0.8886  -0.8657  -0.7789  -0.7548  -0.6640  -0.5628  -0.5103  -0.4424
    -0.3746  -0.3349  -0.3136  -0.2841  -0.2105  -0.1758  -0.1473  -0.1239
     5.8101   5.9419   6.1895   6.2448   6.3363   6.5480   6.7509   6.8179
     6.8956   6.9865   7.0129   7.1572   7.1696   7.2248   7.2511   7.2818
     7.3271   7.5238   7.5359   7.6715   7.7133   7.7674   7.8374   7.8802
     7.9949   8.0058   8.0959   8.1683   8.2120   8.2238   8.4982   8.5684
     8.8274   8.8449   8.8959   8.9987   9.1271   9.1625   9.1919   9.3005
     9.3105   9.4087   9.4555   9.5080   9.5465   9.5829   9.6447   9.6757
     9.7071   9.7359   9.7978   9.8089   9.8725   9.8828   9.9627  10.0209
    10.0389  10.0617  10.1652  10.2020  10.2451  10.3232  10.3365  10.3793
    10.3932  10.4592  10.5013  10.5335  10.6057  10.6182  10.6625  10.7500
    10.7785  10.7851  10.8802  10.9441  11.0002  11.0551  11.1057  11.1312
    11.1802  11.2199  11.2402  11.2984  11.3477  11.3860  11.4147  11.4748
    11.5101  11.5389  11.6314  11.7381  11.7540  11.8094  12.0923  12.1059
    13.6497  13.7640  13.8812  14.0002  14.0885  14.1379  14.4815  14.5410
    14.5676  14.6608  14.8608  14.8953  14.9384  15.0005  15.1041  15.2322
    15.3607  15.3795  15.4853  15.5097  15.6637  15.6966  15.8005  15.8510
    15.8860  15.9395  16.0016  16.0229  16.0827  16.1113  16.2481  16.3092
    16.3489  16.3591  16.3853  16.4098  16.4925  16.5133  16.5559  16.6778
    16.6933  16.7097  16.7393  16.7831  16.8182  16.8585  16.8694  16.9155

          k =-0.5000-0.5000-0.5000 ( 31144 PWs)   bands (ev):

   -43.6052 -43.4369 -43.2378 -43.2261 -43.2077 -43.1766 -43.1490 -43.1226
   -43.0343 -43.0185 -42.9925 -42.9704 -42.9540 -42.9500 -42.9362 -42.9256
   -19.9937 -19.9163 -19.8822 -19.8227 -19.7703 -19.7471 -19.7155 -19.6955
   -19.6717 -19.6571 -19.6505 -19.6153 -19.6039 -19.5824 -19.5694 -19.5607
   -19.5592 -19.5477 -19.5195 -19.5113 -19.5003 -19.4761 -19.4538 -19.4472
   -19.4419 -19.4227 -19.4165 -19.3919 -19.3858 -19.3558 -19.3425 -19.3285
   -19.3054 -19.2941 -19.2771 -19.2542 -19.2446 -19.2283 -19.2114 -19.2055
   -19.1931 -19.1781 -19.1653 -19.1567 -19.1432 -19.1396 -19.1161 -19.1076
    -2.6551  -2.6418  -2.5446  -2.4755  -2.1831  -1.9833  -1.9436  -1.8978
    -1.1328  -1.0788  -1.0528  -1.0208  -1.0057  -0.9466  -0.9264  -0.8589
    -0.7934  -0.7251  -0.6746  -0.6575  -0.6474  -0.5888  -0.5654  -0.4902
    -0.4348  -0.3986  -0.3708  -0.3474  -0.3065  -0.2885  -0.2496  -0.1961
     6.1540   6.2290   6.2549   6.3545   6.4764   6.4842   6.5548   6.5709
     6.6193   6.7527   6.8885   6.9112   7.0535   7.1872   7.2475   7.3573
     7.4089   7.4546   7.5016   7.5600   7.6600   7.7365   7.7866   8.2298
     8.3591   8.4031   8.5108   8.5458   8.6067   8.6586   8.7033   8.7644
     8.8612   8.8849   8.9094   9.0119   9.0369   9.0984   9.1046   9.1780
     9.1985   9.2173   9.2339   9.2793   9.3623   9.3786   9.4465   9.4682
     9.4879   9.5587   9.6039   9.6297   9.7352   9.7724   9.8417   9.8876
    10.0246  10.0827  10.1654  10.1822  10.2331  10.2571  10.3017  10.3508
    10.3939  10.4352  10.4581  10.5510  10.5815  10.5880  10.6768  10.6999
    10.7142  10.7755  10.8813  10.9340  10.9700  11.0186  11.0529  11.1479
    11.2643  11.3127  11.3312  11.3570  11.4682  11.4828  11.5006  11.5618
    11.6444  11.6914  11.7169  11.8429  11.8674  11.9126  11.9635  12.0410
    13.9764  14.0201  14.0929  14.1570  14.2329  14.2669  14.3863  14.4235
    14.5339  14.6107  14.6990  14.7321  14.8491  14.8979  14.9707  15.0829
    15.1139  15.1474  15.4001  15.4238  15.4753  15.5083  15.5987  15.6193
    15.6815  15.7141  15.7482  15.8510  15.9098  15.9275  16.0090  16.2690
    16.3561  16.3882  16.4992  16.5154  16.5407  16.6062  16.6545  16.7682
    16.7924  16.8064  16.8289  16.8553  16.8608  16.9428  16.9698  17.0030

          k =-0.5000 0.0000 0.0000 ( 31464 PWs)   bands (ev):

   -43.6052 -43.4370 -43.2384 -43.2257 -43.2071 -43.1770 -43.1494 -43.1223
   -43.0349 -43.0184 -42.9891 -42.9727 -42.9540 -42.9507 -42.9395 -42.9225
   -19.9938 -19.9166 -19.8841 -19.8236 -19.7698 -19.7465 -19.7138 -19.6900
   -19.6732 -19.6577 -19.6400 -19.6279 -19.6148 -19.6060 -19.5703 -19.5576
   -19.5489 -19.5324 -19.5300 -19.5137 -19.4858 -19.4730 -19.4575 -19.4469
   -19.4355 -19.4212 -19.4193 -19.3909 -19.3716 -19.3524 -19.3381 -19.3218
   -19.3210 -19.3052 -19.2655 -19.2612 -19.2514 -19.2345 -19.2298 -19.1965
   -19.1768 -19.1689 -19.1593 -19.1559 -19.1541 -19.1438 -19.1207 -19.1066
    -3.1177  -3.0681  -2.0649  -1.9881  -1.8789  -1.7920  -1.7834  -1.6040
    -1.5521  -1.4594  -1.2589  -1.1249  -0.9288  -0.9132  -0.8797  -0.8574
    -0.7816  -0.7611  -0.7382  -0.7247  -0.6581  -0.6418  -0.5781  -0.4979
    -0.4873  -0.3839  -0.3623  -0.3293  -0.2679  -0.2399  -0.2253  -0.0561
     5.8058   5.8667   5.9554   6.0364   6.2803   6.3678   6.3858   6.4500
     6.9928   7.0224   7.0456   7.1779   7.2241   7.2437   7.3172   7.4048
     7.5997   7.6388   7.7332   7.8455   7.8539   7.9481   7.9882   8.0718
     8.1014   8.1643   8.2490   8.2721   8.3243   8.3382   8.4237   8.4650
     8.5735   8.6731   8.7275   8.7329   8.8529   9.1918   9.2658   9.3539
     9.4280   9.4380   9.4790   9.5297   9.5694   9.5943   9.6891   9.7378
     9.8283   9.8549   9.8940   9.9085   9.9280   9.9615   9.9918  10.1010
    10.1471  10.1943  10.2190  10.2709  10.2837  10.3000  10.3592  10.3948
    10.4101  10.4548  10.5232  10.5324  10.5708  10.6323  10.6453  10.6849
    10.7042  10.7291  10.7506  10.7936  10.9032  10.9735  11.0447  11.0588
    11.0935  11.0973  11.1514  11.1987  11.2370  11.2952  11.3829  11.4233
    11.4964  11.5270  11.6757  11.7504  12.1029  12.1448  12.1799  12.2050
    12.6760  13.3426  13.6582  13.7612  14.2250  14.2834  14.3716  14.4578
    14.5696  14.6440  14.6897  14.7948  14.9840  15.1963  15.2356  15.4418
    15.4731  15.5672  15.6329  15.7383  15.7760  15.8213  15.9147  15.9363
    15.9824  16.0455  16.1397  16.1446  16.2239  16.2416  16.2846  16.3205
    16.3303  16.3807  16.3921  16.4187  16.4560  16.4786  16.5341  16.5498
    16.5764  16.6065  16.6780  16.7086  16.7246  16.7454  16.7601  16.8135

          k = 0.0000-0.5000 0.0000 ( 31464 PWs)   bands (ev):

   -43.6052 -43.4370 -43.2378 -43.2263 -43.2075 -43.1766 -43.1490 -43.1225
   -43.0345 -43.0185 -42.9926 -42.9706 -42.9539 -42.9501 -42.9361 -42.9256
   -19.9938 -19.9164 -19.8835 -19.8252 -19.7709 -19.7462 -19.7173 -19.6905
   -19.6662 -19.6574 -19.6432 -19.6258 -19.6046 -19.5853 -19.5828 -19.5622
   -19.5515 -19.5436 -19.5293 -19.5160 -19.4855 -19.4628 -19.4556 -19.4545
   -19.4435 -19.4379 -19.3982 -19.3961 -19.3889 -19.3497 -19.3405 -19.3309
   -19.3023 -19.2929 -19.2763 -19.2532 -19.2424 -19.2270 -19.2117 -19.2064
   -19.1908 -19.1777 -19.1680 -19.1564 -19.1430 -19.1414 -19.1200 -19.1105
    -3.1455  -3.0407  -2.0664  -1.9808  -1.9213  -1.7771  -1.7419  -1.6505
    -1.5181  -1.3979  -1.2863  -1.1095  -0.9693  -0.9315  -0.8829  -0.8611
    -0.8311  -0.8055  -0.7340  -0.6984  -0.6572  -0.5788  -0.5443  -0.5270
    -0.4761  -0.4334  -0.4059  -0.3168  -0.2406  -0.2299  -0.1279  -0.1179
     5.7810   5.8525   5.9934   6.0909   6.1227   6.2441   6.5750   6.6077
     6.9551   6.9975   7.0402   7.1482   7.2153   7.3206   7.3474   7.4454
     7.5001   7.5515   7.7251   7.8939   7.9195   7.9555   7.9956   8.0435
     8.1215   8.1978   8.2092   8.2308   8.2966   8.3124   8.4280   8.4696
     8.5222   8.6911   8.7737   8.8089   8.8796   9.1536   9.3109   9.3840
     9.4150   9.4580   9.4838   9.5543   9.5692   9.5876   9.6516   9.6746
     9.7132   9.7811   9.8501   9.8552   9.9283   9.9987  10.0253  10.0829
    10.0969  10.1152  10.1710  10.2051  10.2505  10.2814  10.3342  10.3662
    10.4181  10.4453  10.4856  10.5763  10.6285  10.6438  10.6701  10.7065
    10.7423  10.8038  10.8660  10.8821  10.9120  10.9459  10.9933  11.0180
    11.1082  11.1492  11.2001  11.2165  11.2733  11.3089  11.3456  11.3779
    11.5109  11.5697  11.6737  11.7097  12.1411  12.1683  12.1757  12.2743
    12.9946  13.0934  13.8532  13.9128  14.0174  14.0419  14.4054  14.4708
    14.5185  14.5321  14.5687  14.9774  15.0388  15.0798  15.1394  15.4593
    15.5708  15.6014  15.6727  15.7103  15.7653  15.8573  15.9151  15.9783
    15.9946  16.0139  16.0509  16.0687  16.1763  16.2451  16.2860  16.2985
    16.3753  16.4195  16.4381  16.4513  16.4973  16.5247  16.5717  16.6159
    16.6394  16.6754  16.6903  16.6994  16.7559  16.7697  16.7810  16.8429

          k =-0.5000 0.0000 0.5000 ( 31256 PWs)   bands (ev):

   -43.6052 -43.4369 -43.2384 -43.2257 -43.2071 -43.1770 -43.1494 -43.1223
   -43.0348 -43.0185 -42.9891 -42.9725 -42.9540 -42.9506 -42.9395 -42.9224
   -19.9937 -19.9165 -19.8828 -19.8239 -19.7699 -19.7464 -19.7140 -19.6892
   -19.6737 -19.6587 -19.6407 -19.6282 -19.6129 -19.6054 -19.5735 -19.5576
   -19.5490 -19.5338 -19.5245 -19.5131 -19.4854 -19.4728 -19.4593 -19.4472
   -19.4353 -19.4225 -19.4198 -19.3912 -19.3716 -19.3529 -19.3378 -19.3216
   -19.3212 -19.3065 -19.2645 -19.2607 -19.2513 -19.2363 -19.2299 -19.1922
   -19.1776 -19.1695 -19.1583 -19.1557 -19.1538 -19.1444 -19.1204 -19.1076
    -2.9416  -2.9036  -2.4766  -2.3280  -1.7648  -1.6990  -1.6567  -1.6227
    -1.3905  -1.3252  -1.2341  -1.1886  -1.1739  -1.1192  -0.9699  -0.9334
    -0.8523  -0.8155  -0.6992  -0.6697  -0.5986  -0.5893  -0.5188  -0.4519
    -0.4271  -0.3547  -0.3114  -0.2719  -0.2532  -0.2355  -0.1586  -0.0757
     5.8836   5.9081   6.0808   6.3911   6.4219   6.6630   6.7184   6.7588
     6.8084   6.9011   7.0131   7.1158   7.1657   7.1916   7.2167   7.2710
     7.3463   7.4291   7.4609   7.5451   7.6938   7.7082   7.8436   7.9643
     8.0126   8.1086   8.1204   8.2294   8.2592   8.2886   8.5590   8.6482
     8.7308   8.7985   8.8403   8.9939   9.1430   9.1622   9.2505   9.3251
     9.3725   9.4111   9.4539   9.5340   9.5367   9.6183   9.6507   9.6769
     9.7254   9.7863   9.7978   9.8380   9.8871   9.9730   9.9951  10.0328
    10.0655  10.0717  10.1260  10.1758  10.2529  10.3537  10.3731  10.4006
    10.4276  10.4949  10.5141  10.5242  10.5798  10.5860  10.6209  10.6403
    10.6987  10.7522  10.8405  10.9195  11.0179  11.0682  11.0921  11.1330
    11.2416  11.2482  11.2709  11.2950  11.3482  11.3562  11.3903  11.4626
    11.5220  11.5446  11.5652  11.6407  11.6873  11.8569  11.9446  12.1616
    13.4525  13.6843  13.8860  13.9236  14.2142  14.3291  14.4189  14.5199
    14.6604  14.7009  14.7918  14.9353  14.9735  15.0540  15.1802  15.2733
    15.2887  15.4639  15.5194  15.5650  15.6030  15.6345  15.8345  15.8424
    15.9041  15.9444  15.9919  16.0850  16.0952  16.1664  16.2258  16.2550
    16.2791  16.3598  16.3799  16.4009  16.4507  16.4880  16.5074  16.5517
    16.6033  16.6222  16.7115  16.7519  16.7623  16.8458  16.8654  16.8853

          k =-0.5000 0.5000 0.0000 ( 31256 PWs)   bands (ev):

   -43.6052 -43.4369 -43.2378 -43.2261 -43.2077 -43.1766 -43.1491 -43.1226
   -43.0344 -43.0184 -42.9924 -42.9706 -42.9539 -42.9501 -42.9361 -42.9256
   -19.9938 -19.9164 -19.8837 -19.8227 -19.7702 -19.7471 -19.7150 -19.6928
   -19.6712 -19.6569 -19.6503 -19.6159 -19.6043 -19.5819 -19.5699 -19.5610
   -19.5591 -19.5520 -19.5199 -19.5136 -19.4991 -19.4763 -19.4533 -19.4436
   -19.4405 -19.4231 -19.4166 -19.3904 -19.3849 -19.3557 -19.3423 -19.3282
   -19.3057 -19.2944 -19.2780 -19.2534 -19.2445 -19.2304 -19.2147 -19.2065
   -19.1914 -19.1769 -19.1644 -19.1554 -19.1427 -19.1404 -19.1169 -19.1080
    -2.8058  -2.7706  -2.7170  -2.6286  -1.6441  -1.5782  -1.5737  -1.4683
    -1.4485  -1.3373  -1.2779  -1.1680  -1.0483  -1.0237  -0.9657  -0.9218
    -0.8106  -0.7856  -0.7363  -0.6699  -0.6311  -0.5898  -0.5126  -0.4993
    -0.4650  -0.4176  -0.3890  -0.3106  -0.3048  -0.2539  -0.1854  -0.1297
     5.8928   5.9799   6.1641   6.2744   6.2834   6.3599   6.5556   6.6412
     6.6929   6.8125   6.8567   7.0367   7.1942   7.3165   7.3529   7.4459
     7.4580   7.5613   7.5932   7.7075   7.7345   7.7961   7.8006   7.8942
     7.9084   7.9819   8.1587   8.1792   8.4740   8.5699   8.6246   8.8161
     8.9214   9.0910   9.1177   9.1381   9.1960   9.2273   9.2731   9.3011
     9.3365   9.3979   9.5346   9.5407   9.6165   9.6224   9.7100   9.7321
     9.7381   9.7934   9.8201   9.8578   9.8979   9.9394  10.0160  10.0965
    10.1098  10.1598  10.1899  10.2555  10.2693  10.2795  10.3108  10.3556
    10.3787  10.4174  10.4698  10.5003  10.5563  10.5911  10.6006  10.6240
    10.6396  10.6540  10.7010  10.7287  10.8318  10.8589  10.8805  10.9338
    11.0265  11.0963  11.1240  11.1549  11.2349  11.2771  11.3025  11.4430
    11.5066  11.5304  11.6052  11.6191  11.8122  11.9526  12.0221  12.1482
    13.8807  13.9481  13.9707  14.0725  14.1868  14.2345  14.3733  14.4438
    14.5563  14.5816  14.6481  14.7274  14.9243  15.0298  15.0516  15.1337
    15.2098  15.2567  15.3650  15.4689  15.5435  15.6182  15.6745  15.6869
    15.7691  15.8944  15.9221  16.0192  16.0448  16.0966  16.1372  16.3471
    16.4088  16.4626  16.4869  16.5424  16.5779  16.5991  16.6136  16.6713
    16.7020  16.7365  16.7565  16.7997  16.8234  16.8560  16.8944  16.9485

     the Fermi energy is    14.4912 ev

!    total energy              =   -4480.62412749 Ry
     total all-electron energy =    -38603.236713 Ry
     estimated scf accuracy    <          3.8E-09 Ry
     smearing contrib. (-TS)   =      -0.00337714 Ry
     internal energy E=F+TS    =   -4480.62075035 Ry

     The total energy is F=E-TS. E is the sum of the following terms:
     one-electron contribution =    -832.70711445 Ry
     hartree contribution      =     671.14965020 Ry
     xc contribution           =    -528.02343414 Ry
     ewald contribution        =   -1936.10053283 Ry
     one-center paw contrib.   =   -1854.93931912 Ry

     convergence has been achieved in  21 iterations

     Forces acting on atoms (cartesian axes, Ry/au):

     atom    1 type  1   force =    -0.01251284   -0.01006777   -0.00987642
     atom    2 type  2   force =     0.00022570   -0.02287019   -0.02160077
     atom    3 type  1   force =    -0.01052644    0.00048957   -0.00236617
     atom    4 type  2   force =     0.00149948   -0.00335966   -0.00407616
     atom    5 type  3   force =     0.00173887   -0.01237480    0.00265613
     atom    6 type  2   force =    -0.01590412   -0.01105960    0.00051510
     atom    7 type  3   force =     0.00026060    0.00286268   -0.01734086
     atom    8 type  2   force =    -0.01723124    0.00016361   -0.01371570
     atom    9 type  1   force =    -0.01366231   -0.01335775    0.00127478
     atom   10 type  2   force =    -0.00160417   -0.01083982    0.00357204
     atom   11 type  3   force =    -0.01234888    0.00368386    0.01154918
     atom   12 type  2   force =    -0.00384838   -0.00476339    0.01519582
     atom   13 type  3   force =    -0.00034094   -0.01412965    0.01611766
     atom   14 type  2   force =    -0.01996838   -0.02008592    0.00882450
     atom   15 type  1   force =    -0.00053527   -0.00066029    0.00056686
     atom   16 type  2   force =    -0.01130654   -0.00161297    0.00108373
     atom   17 type  1   force =    -0.01456753   -0.00160026   -0.01355625
     atom   18 type  2   force =     0.00067600    0.00464543   -0.01887721
     atom   19 type  1   force =    -0.00869192    0.00781143   -0.00094798
     atom   20 type  2   force =     0.00101317    0.01520800   -0.00289569
     atom   21 type  1   force =    -0.00173061    0.00236362   -0.00148027
     atom   22 type  2   force =    -0.01320043   -0.00080365   -0.00103967
     atom   23 type  3   force =     0.00066258    0.01454498   -0.01379387
     atom   24 type  2   force =    -0.01859450    0.01400337   -0.01143601
     atom   25 type  3   force =    -0.01704144   -0.00123705    0.00272271
     atom   26 type  2   force =    -0.00389636   -0.00044965    0.00455117
     atom   27 type  3   force =    -0.01135899    0.01190554    0.01235154
     atom   28 type  2   force =    -0.00416669    0.02131763    0.01596655
     atom   29 type  3   force =    -0.00429235   -0.00144620    0.01826102
     atom   30 type  2   force =    -0.02111115    0.00505649    0.01516009
     atom   31 type  1   force =     0.00096523    0.01039433   -0.00023884
     atom   32 type  2   force =    -0.01376345    0.01743709    0.00053412
     atom   33 type  1   force =    -0.00062751   -0.01692047   -0.01602502
     atom   34 type  2   force =     0.01624059   -0.01560966   -0.01121274
     atom   35 type  1   force =     0.00102066   -0.00077456   -0.00075838
     atom   36 type  2   force =     0.01209724    0.00109249   -0.00209943
     atom   37 type  1   force =     0.01218685   -0.00705143    0.00013484
     atom   38 type  2   force =     0.00058334   -0.00939526   -0.00226114
     atom   39 type  3   force =     0.01158636    0.00225653   -0.01510259
     atom   40 type  2   force =     0.00396269   -0.00234337   -0.01646673
     atom   41 type  3   force =    -0.00205688   -0.02297271    0.00015967
     atom   42 type  2   force =     0.01804888   -0.01462016    0.00251523
     atom   43 type  3   force =     0.00189860   -0.00091773    0.01536319
     atom   44 type  2   force =     0.01896173   -0.00219958    0.01599590
     atom   45 type  3   force =     0.01253457   -0.01135524    0.01426420
     atom   46 type  2   force =     0.00557272   -0.02366357    0.01585388
     atom   47 type  1   force =     0.00907004    0.00178530    0.00256661
     atom   48 type  2   force =    -0.00080926   -0.00433708    0.00422173
     atom   49 type  3   force =     0.00209031   -0.00044088   -0.02790743
     atom   50 type  2   force =     0.02005974    0.00168039   -0.01315500
     atom   51 type  1   force =    -0.00155389    0.00715897    0.00003954
     atom   52 type  2   force =     0.01258118    0.01030421   -0.00027150
     atom   53 type  1   force =     0.01232301    0.00023939    0.00149210
     atom   54 type  2   force =    -0.00159795   -0.00171040   -0.00515181
     atom   55 type  1   force =     0.01189869    0.01118404   -0.01133160
     atom   56 type  2   force =     0.00132321    0.02018340   -0.01313190
     atom   57 type  3   force =     0.00176082    0.00141177    0.00196871
     atom   58 type  2   force =     0.01937880    0.00267322    0.00114509
     atom   59 type  3   force =    -0.00178527    0.01984619    0.01369914
     atom   60 type  2   force =     0.02020167    0.01380275    0.01095437
     atom   61 type  1   force =     0.01406597   -0.00187404    0.00885661
     atom   62 type  2   force =    -0.00072114    0.00378494    0.02558932
     atom   63 type  3   force =     0.01194558    0.01500549   -0.00158247
     atom   64 type  2   force =     0.00292196    0.02260802    0.00397648

     Total force =     0.151661     Total SCF correction =     0.000241


     Computing stress (Cartesian axis) and pressure

          total   stress  (Ry/bohr**3)                   (kbar)     P=      -26.60
  -0.00018047   0.00003939  -0.00002850          -26.55        5.79       -4.19
   0.00003939  -0.00021889  -0.00004226            5.79      -32.20       -6.22
  -0.00002850  -0.00004226  -0.00014312           -4.19       -6.22      -21.05

 
     init_run     :      3.01s CPU      3.17s WALL (       1 calls)
     electrons    :    148.84s CPU    152.07s WALL (       1 calls)
     forces       :      1.71s CPU      1.77s WALL (       1 calls)
     stress       :     16.73s CPU     16.88s WALL (       1 calls)

     Called by init_run:
     wfcinit      :      2.55s CPU      2.67s WALL (       1 calls)
     potinit      :      0.21s CPU      0.22s WALL (       1 calls)
     hinit0       :      0.12s CPU      0.13s WALL (       1 calls)

     Called by electrons:
     c_bands      :    127.48s CPU    129.75s WALL (      21 calls)
     sum_band     :     14.98s CPU     15.50s WALL (      21 calls)
     v_of_rho     :      0.78s CPU      0.80s WALL (      22 calls)
     newd         :      1.30s CPU      1.57s WALL (      22 calls)
     PAW_pot      :      3.47s CPU      3.54s WALL (      22 calls)
     mix_rho      :      1.02s CPU      1.09s WALL (      21 calls)

     Called by c_bands:
     init_us_2    :      1.81s CPU      1.84s WALL (      90 calls)
     init_us_2:cp :      1.81s CPU      1.84s WALL (      90 calls)
     cegterg      :    114.18s CPU    116.32s WALL (      42 calls)

     Called by *egterg:
     cdiaghg      :     11.87s CPU     12.04s WALL (     239 calls)
     h_psi        :     57.66s CPU     58.59s WALL (     241 calls)
     s_psi        :     14.98s CPU     15.10s WALL (     241 calls)
     g_psi        :      0.27s CPU      0.27s WALL (     197 calls)

     Called by h_psi:
     h_psi:calbec :     14.50s CPU     14.64s WALL (     241 calls)
     vloc_psi     :     27.55s CPU     28.02s WALL (     241 calls)
     add_vuspsi   :     15.09s CPU     15.23s WALL (     241 calls)

     General routines
     calbec       :     21.53s CPU     21.72s WALL (     293 calls)
     fft          :      0.38s CPU      0.39s WALL (     267 calls)
     ffts         :      0.50s CPU      0.51s WALL (     439 calls)
     fftw         :     28.36s CPU     28.83s WALL (   59564 calls)
 
     Parallel routines
 
     PWSCF        :   2m50.53s CPU   2m54.37s WALL

 
   This run was terminated on:  16:58: 6  11May2026            

=------------------------------------------------------------------------------=
   JOB DONE.
=------------------------------------------------------------------------------=
