
     Program PWSCF v.7.1 starts on 11May2026 at 17:13:51 

     This program is part of the open-source Quantum ESPRESSO suite
     for quantum simulation of materials; please cite
         "P. Giannozzi et al., J. Phys.:Condens. Matter 21 395502 (2009);
         "P. Giannozzi et al., J. Phys.:Condens. Matter 29 465901 (2017);
         "P. Giannozzi et al., J. Chem. Phys. 152 154105 (2020);
          URL http://www.quantum-espresso.org", 
     in publications or presentations arising from this work. More details at
     http://www.quantum-espresso.org/quote

     Parallel version (MPI & OpenMP), running on      32 processor cores
     Number of MPI processes:                32
     Threads/MPI process:                     1

     MPI processes distributed on     1 nodes
     91386 MiB available memory on the printing compute node when the environment starts
 
     Reading input from TiAlN_x0375finalrelaxedresult83942625.in

     Current dimensions of program PWSCF are:
     Max number of different atomic species (ntypx) = 10
     Max number of k-points (npk) = 150000
     Max angular momentum in pseudopotentials (lmaxx) =  4
     file Al.pbe-n-kjpaw_psl.1.0.0.UPF: wavefunction(s)  3S 3P renormalized
     file N.pbe-n-kjpaw_psl.1.0.0.UPF: wavefunction(s)  2S renormalized
     file Ti.pbe-spn-kjpaw_psl.1.0.0.UPF: wavefunction(s)  3S 3P 3D renormalized
 
     K-points division:     npool     =       4
     R & G space division:  proc/nbgrp/npool/nimage =       8
     Subspace diagonalization in iterative solution of the eigenvalue problem:
     one sub-group per band group will be used
     scalapack distributed-memory algorithm (size of sub-group:  2*  2 procs)

 
     Parallelization info
     --------------------
     sticks:   dense  smooth     PW     G-vecs:    dense   smooth      PW
     Min         601     601    164                31341    31341    4466
     Max         602     602    165                31346    31346    4467
     Sum        4809    4809   1313               250743   250743   35729
 
     Using Slab Decomposition
 


     bravais-lattice index     =            0
     lattice parameter (alat)  =      15.8629  a.u.
     unit-cell volume          =    3991.5745 (a.u.)^3
     number of atoms/cell      =           64
     number of atomic types    =            3
     number of electrons       =       436.00
     number of Kohn-Sham states=          262
     kinetic-energy cutoff     =      60.0000  Ry
     charge density cutoff     =     240.0000  Ry
     scf convergence threshold =      1.0E-08
     mixing beta               =       0.2000
     number of iterations used =            8  local-TF  mixing
     Exchange-correlation= SLA  PW   PBX  PBC
                           (   1   4   3   4   0   0   0)

     celldm(1)=  15.862857  celldm(2)=   0.000000  celldm(3)=   0.000000
     celldm(4)=   0.000000  celldm(5)=   0.000000  celldm(6)=   0.000000

     crystal axes: (cart. coord. in units of alat)
               a(1) = (   1.000000   0.000000   0.000000 )  
               a(2) = (   0.000000   1.000000   0.000000 )  
               a(3) = (   0.000000   0.000000   1.000000 )  

     reciprocal axes: (cart. coord. in units 2 pi/alat)
               b(1) = (  1.000000  0.000000  0.000000 )  
               b(2) = (  0.000000  1.000000  0.000000 )  
               b(3) = (  0.000000  0.000000  1.000000 )  


     PseudoPot. # 1 for Al read from file:
     ../../../pseudo/Al.pbe-n-kjpaw_psl.1.0.0.UPF
     MD5 check sum: 502b6b27b9c6270cab5dd1084b96fa6d
     Pseudo is Projector augmented-wave + core cor, Zval =  3.0
     Generated using &quot;atomic&quot; code by A. Dal Corso  v.6.3
     Shape of augmentation charge: PSQ
     Using radial grid of 1135 points,  6 beta functions with: 
                l(1) =   0
                l(2) =   0
                l(3) =   1
                l(4) =   1
                l(5) =   2
                l(6) =   2
     Q(r) pseudized with 0 coefficients 


     PseudoPot. # 2 for N  read from file:
     ../../../pseudo/N.pbe-n-kjpaw_psl.1.0.0.UPF
     MD5 check sum: 14c48229446f9f2d411169a3abcbc3fa
     Pseudo is Projector augmented-wave + core cor, Zval =  5.0
     Generated using &quot;atomic&quot; code by A. Dal Corso  v.6.3
     Shape of augmentation charge: PSQ
     Using radial grid of 1085 points,  4 beta functions with: 
                l(1) =   0
                l(2) =   0
                l(3) =   1
                l(4) =   1
     Q(r) pseudized with 0 coefficients 


     PseudoPot. # 3 for Ti read from file:
     ../../../pseudo/Ti.pbe-spn-kjpaw_psl.1.0.0.UPF
     MD5 check sum: 01f69b0d8ba4438b2e03ac6ea4af1c0b
     Pseudo is Projector augmented-wave + core cor, Zval = 12.0
     Generated using &quot;atomic&quot; code by A. Dal Corso  v.6.2.2
     Shape of augmentation charge: PSQ
     Using radial grid of 1177 points,  6 beta functions with: 
                l(1) =   0
                l(2) =   0
                l(3) =   1
                l(4) =   1
                l(5) =   2
                l(6) =   2
     Q(r) pseudized with 0 coefficients 


     atomic species   valence    mass     pseudopotential
        Al             3.00    26.98200     Al( 1.00)
        N              5.00    14.00700     N ( 1.00)
        Ti            12.00    47.86700     Ti( 1.00)

     No symmetry found



   Cartesian axes

     site n.     atom                  positions (alat units)
         1           Al  tau(   1) = (  -0.0014489  -0.0020925  -0.0042381  )
         2           N   tau(   2) = (   0.2374456  -0.0022096  -0.0088707  )
         3           Ti  tau(   3) = (   0.0023037   0.2432250   0.2541949  )
         4           N   tau(   4) = (   0.2481586   0.2484228   0.2493421  )
         5           Ti  tau(   5) = (   0.2474978   0.0019731   0.2494408  )
         6           N   tau(   6) = (  -0.0110427  -0.0013956   0.2362467  )
         7           Ti  tau(   7) = (   0.2523271   0.2521043   0.0018232  )
         8           N   tau(   8) = (  -0.0017398   0.2511416  -0.0013966  )
         9           Ti  tau(   9) = (  -0.0007718   0.0042577   0.4905784  )
        10           N   tau(  10) = (   0.2473115  -0.0075314   0.5068802  )
        11           Ti  tau(  11) = (   0.0038865   0.2489334   0.7409530  )
        12           N   tau(  12) = (   0.2474049   0.2359505   0.7456679  )
        13           Al  tau(  13) = (   0.2431412  -0.0039202   0.7458712  )
        14           N   tau(  14) = (  -0.0045805  -0.0063998   0.7517590  )
        15           Ti  tau(  15) = (   0.2493417   0.2495297   0.4962862  )
        16           N   tau(  16) = (   0.0011880   0.2617801   0.4983889  )
        17           Al  tau(  17) = (  -0.0050236   0.4992813  -0.0001147  )
        18           N   tau(  18) = (   0.2341481   0.4985270  -0.0004697  )
        19           Ti  tau(  19) = (   0.0080213   0.7524902   0.2522267  )
        20           N   tau(  20) = (   0.2582161   0.7469956   0.2563546  )
        21           Ti  tau(  21) = (   0.2504248   0.4948803   0.2451570  )
        22           N   tau(  22) = (  -0.0091652   0.4998724   0.2471677  )
        23           Ti  tau(  23) = (   0.2539109   0.7421805   0.0011566  )
        24           N   tau(  24) = (  -0.0050612   0.7443366  -0.0040550  )
        25           Al  tau(  25) = (  -0.0012410   0.5021171   0.4984092  )
        26           N   tau(  26) = (   0.2396711   0.5047993   0.4986665  )
        27           Al  tau(  27) = (   0.0003714   0.7456917   0.7477859  )
        28           N   tau(  28) = (   0.2416872   0.7533383   0.7409415  )
        29           Ti  tau(  29) = (   0.2567123   0.4958867   0.7497932  )
        30           N   tau(  30) = (  -0.0072866   0.5037622   0.7476086  )
        31           Al  tau(  31) = (   0.2485308   0.7456856   0.4995174  )
        32           N   tau(  32) = (   0.0054222   0.7401961   0.5031232  )
        33           Ti  tau(  33) = (   0.4903101   0.0040904   0.0006127  )
        34           N   tau(  34) = (   0.7527955  -0.0057190  -0.0013454  )
        35           Ti  tau(  35) = (   0.4943072   0.2494964   0.2509558  )
        36           N   tau(  36) = (   0.7452350   0.2476125   0.2471768  )
        37           Al  tau(  37) = (   0.7454171  -0.0039685   0.2409064  )
        38           N   tau(  38) = (   0.5082745  -0.0075062   0.2475531  )
        39           Ti  tau(  39) = (   0.7414063   0.2493756   0.0001627  )
        40           N   tau(  40) = (   0.4983113   0.2482903   0.0012501  )
        41           Ti  tau(  41) = (   0.4978939   0.0062102   0.4971658  )
        42           N   tau(  42) = (   0.7475466  -0.0018035   0.4990456  )
        43           Ti  tau(  43) = (   0.4935347   0.2530420   0.7438662  )
        44           N   tau(  44) = (   0.7471905   0.2452583   0.7473401  )
        45           Al  tau(  45) = (   0.7484576  -0.0038581   0.7520172  )
        46           N   tau(  46) = (   0.5022169  -0.0031785   0.7478726  )
        47           Ti  tau(  47) = (   0.7459916   0.2436019   0.4970699  )
        48           N   tau(  48) = (   0.4969696   0.2493609   0.4965670  )
        49           Ti  tau(  49) = (   0.4904833   0.4936743  -0.0029516  )
        50           N   tau(  50) = (   0.7529432   0.5028749  -0.0005493  )
        51           Al  tau(  51) = (   0.5002426   0.7450099   0.2497631  )
        52           N   tau(  52) = (   0.7424061   0.7477586   0.2453826  )
        53           Al  tau(  53) = (   0.7487430   0.5016747   0.2479279  )
        54           N   tau(  54) = (   0.5092984   0.5049880   0.2486602  )
        55           Al  tau(  55) = (   0.7483766   0.7453546   0.0003805  )
        56           N   tau(  56) = (   0.5063671   0.7464190   0.0071046  )
        57           Ti  tau(  57) = (   0.4959509   0.4906058   0.5006393  )
        58           N   tau(  58) = (   0.7542440   0.5003239   0.4978897  )
        59           Ti  tau(  59) = (   0.4915966   0.7405040   0.7474712  )
        60           N   tau(  60) = (   0.7518099   0.7482823   0.7505800  )
        61           Al  tau(  61) = (   0.7525165   0.5017519   0.7468570  )
        62           N   tau(  62) = (   0.5147556   0.4998628   0.7461446  )
        63           Ti  tau(  63) = (   0.7441166   0.7526161   0.4985747  )
        64           N   tau(  64) = (   0.4911267   0.7447812   0.4923101  )

     number of k points=     8  Gaussian smearing, width (Ry)=  0.0050
                       cart. coord. in units 2pi/alat
        k(    1) = (   0.0000000   0.0000000   0.0000000), wk =   0.2500000
        k(    2) = (   0.0000000   0.0000000  -0.5000000), wk =   0.2500000
        k(    3) = (   0.0000000  -0.5000000  -0.5000000), wk =   0.2500000
        k(    4) = (  -0.5000000  -0.5000000  -0.5000000), wk =   0.2500000
        k(    5) = (  -0.5000000   0.0000000   0.0000000), wk =   0.2500000
        k(    6) = (   0.0000000  -0.5000000   0.0000000), wk =   0.2500000
        k(    7) = (  -0.5000000   0.0000000   0.5000000), wk =   0.2500000
        k(    8) = (  -0.5000000   0.5000000   0.0000000), wk =   0.2500000

     Dense  grid:   250743 G-vectors     FFT dimensions: (  80,  80,  80)

     Estimated max dynamical RAM per process >     220.11 MB

     Estimated total dynamical RAM >       6.70 GB

     Check: negative core charge=   -0.000025

     Initial potential from superposition of free atoms

     starting charge     435.9427, renormalised to     436.0000
     Starting wfcs are  376 randomized atomic wfcs
     Checking if some PAW data can be deallocated... 

     total cpu time spent up to now is        4.0 secs

     Self-consistent Calculation

     iteration #  1     ecut=    60.00 Ry     beta= 0.20
     Davidson diagonalization with overlap
     ethr =  1.00E-02,  avg # of iterations =  2.0

     total cpu time spent up to now is       11.2 secs

     total energy              =   -5059.81353082 Ry
     estimated scf accuracy    <      19.74191592 Ry

     iteration #  2     ecut=    60.00 Ry     beta= 0.20
     Davidson diagonalization with overlap
     ethr =  4.53E-03,  avg # of iterations =  1.0

     total cpu time spent up to now is       17.0 secs

     total energy              =   -5055.00038968 Ry
     estimated scf accuracy    <      11.24195732 Ry

     iteration #  3     ecut=    60.00 Ry     beta= 0.20
     Davidson diagonalization with overlap
     ethr =  2.58E-03,  avg # of iterations =  3.4

     total cpu time spent up to now is       25.1 secs

     total energy              =   -5057.71778825 Ry
     estimated scf accuracy    <       0.80042167 Ry

     iteration #  4     ecut=    60.00 Ry     beta= 0.20
     Davidson diagonalization with overlap
     ethr =  1.84E-04,  avg # of iterations =  4.4

     total cpu time spent up to now is       33.0 secs

     total energy              =   -5057.78968444 Ry
     estimated scf accuracy    <       0.37422275 Ry

     iteration #  5     ecut=    60.00 Ry     beta= 0.20
     Davidson diagonalization with overlap
     ethr =  8.58E-05,  avg # of iterations =  2.2

     total cpu time spent up to now is       39.7 secs

     total energy              =   -5057.76858040 Ry
     estimated scf accuracy    <       0.19820538 Ry

     iteration #  6     ecut=    60.00 Ry     beta= 0.20
     Davidson diagonalization with overlap
     ethr =  4.55E-05,  avg # of iterations =  2.0

     total cpu time spent up to now is       47.1 secs

     total energy              =   -5057.77110279 Ry
     estimated scf accuracy    <       0.07894013 Ry

     iteration #  7     ecut=    60.00 Ry     beta= 0.20
     Davidson diagonalization with overlap
     ethr =  1.81E-05,  avg # of iterations =  2.9

     total cpu time spent up to now is       54.1 secs

     total energy              =   -5057.77291551 Ry
     estimated scf accuracy    <       0.01542727 Ry

     iteration #  8     ecut=    60.00 Ry     beta= 0.20
     Davidson diagonalization with overlap
     ethr =  3.54E-06,  avg # of iterations = 18.8

     total cpu time spent up to now is       69.5 secs

     total energy              =   -5057.77707794 Ry
     estimated scf accuracy    <       0.00354661 Ry

     iteration #  9     ecut=    60.00 Ry     beta= 0.20
     Davidson diagonalization with overlap
     ethr =  8.13E-07,  avg # of iterations =  4.5

     total cpu time spent up to now is       77.3 secs

     total energy              =   -5057.77703548 Ry
     estimated scf accuracy    <       0.00127207 Ry

     iteration # 10     ecut=    60.00 Ry     beta= 0.20
     Davidson diagonalization with overlap
     ethr =  2.92E-07,  avg # of iterations =  5.1

     total cpu time spent up to now is       85.8 secs

     total energy              =   -5057.77700946 Ry
     estimated scf accuracy    <       0.00038439 Ry

     iteration # 11     ecut=    60.00 Ry     beta= 0.20
     Davidson diagonalization with overlap
     ethr =  8.82E-08,  avg # of iterations = 14.9

     total cpu time spent up to now is       98.7 secs

     total energy              =   -5057.77704910 Ry
     estimated scf accuracy    <       0.00040599 Ry

     iteration # 12     ecut=    60.00 Ry     beta= 0.20
     Davidson diagonalization with overlap
     ethr =  8.82E-08,  avg # of iterations =  2.0

     total cpu time spent up to now is      105.5 secs

     total energy              =   -5057.77706875 Ry
     estimated scf accuracy    <       0.00007159 Ry

     iteration # 13     ecut=    60.00 Ry     beta= 0.20
     Davidson diagonalization with overlap
     ethr =  1.64E-08,  avg # of iterations =  4.6

     total cpu time spent up to now is      114.2 secs

     total energy              =   -5057.77707728 Ry
     estimated scf accuracy    <       0.00003259 Ry

     iteration # 14     ecut=    60.00 Ry     beta= 0.20
     Davidson diagonalization with overlap
     ethr =  7.47E-09,  avg # of iterations =  2.0

     total cpu time spent up to now is      121.2 secs

     total energy              =   -5057.77707895 Ry
     estimated scf accuracy    <       0.00000588 Ry

     iteration # 15     ecut=    60.00 Ry     beta= 0.20
     Davidson diagonalization with overlap
     ethr =  1.35E-09,  avg # of iterations =  3.0

     total cpu time spent up to now is      128.1 secs

     total energy              =   -5057.77707866 Ry
     estimated scf accuracy    <       0.00000261 Ry

     iteration # 16     ecut=    60.00 Ry     beta= 0.20
     Davidson diagonalization with overlap
     ethr =  5.99E-10,  avg # of iterations =  5.8

     total cpu time spent up to now is      136.3 secs

     total energy              =   -5057.77707893 Ry
     estimated scf accuracy    <       0.00000058 Ry

     iteration # 17     ecut=    60.00 Ry     beta= 0.20
     Davidson diagonalization with overlap
     ethr =  1.33E-10,  avg # of iterations =  6.4

     total cpu time spent up to now is      145.5 secs

     total energy              =   -5057.77707900 Ry
     estimated scf accuracy    <       0.00000014 Ry

     iteration # 18     ecut=    60.00 Ry     beta= 0.20
     Davidson diagonalization with overlap
     ethr =  3.29E-11,  avg # of iterations =  5.0

     total cpu time spent up to now is      154.0 secs

     total energy              =   -5057.77707900 Ry
     estimated scf accuracy    <       0.00000007 Ry

     iteration # 19     ecut=    60.00 Ry     beta= 0.20
     Davidson diagonalization with overlap
     ethr =  1.53E-11,  avg # of iterations =  2.2

     total cpu time spent up to now is      160.9 secs

     total energy              =   -5057.77707900 Ry
     estimated scf accuracy    <       0.00000003 Ry

     iteration # 20     ecut=    60.00 Ry     beta= 0.20
     Davidson diagonalization with overlap
     ethr =  5.89E-12,  avg # of iterations =  3.0

     total cpu time spent up to now is      168.6 secs

     End of self-consistent calculation

          k = 0.0000 0.0000 0.0000 ( 31439 PWs)   bands (ev):

   -42.7415 -42.6593 -42.4953 -42.4870 -42.4522 -42.4029 -42.3675 -42.3413
   -42.3143 -42.2915 -42.2725 -42.2542 -42.2473 -42.2210 -42.2078 -42.1885
   -42.1776 -42.1527 -42.1074 -42.0783 -19.1421 -19.0914 -19.0817 -19.0646
   -19.0330 -19.0146 -18.9679 -18.9467 -18.9057 -18.8944 -18.8879 -18.8715
   -18.8610 -18.8469 -18.8364 -18.8279 -18.8201 -18.7993 -18.7905 -18.7865
   -18.7779 -18.7731 -18.7609 -18.7489 -18.7417 -18.7266 -18.7152 -18.7036
   -18.6938 -18.6632 -18.6476 -18.6341 -18.6219 -18.6024 -18.5979 -18.5852
   -18.5708 -18.5528 -18.5453 -18.5290 -18.5177 -18.5109 -18.4991 -18.4685
   -18.4574 -18.4516 -18.4462 -18.4378 -18.4250 -18.4194 -18.4076 -18.3962
   -18.3778 -18.3734 -18.3608 -18.3508 -18.3260 -18.3154 -18.2768 -18.2727
    -2.5057  -1.4400  -1.3240  -1.2562  -1.1074  -1.0291  -0.9382  -0.4746
    -0.3759  -0.3574  -0.3290  -0.2675  -0.2521  -0.1925  -0.1477  -0.1010
    -0.0793  -0.0113   0.0459   0.1443   0.1581   0.2176   0.2496   0.2653
     0.3321   0.3444   0.4111   0.4325   0.4943   0.5869   0.6693   0.7219
     5.9020   6.4832   6.7485   6.9904   7.4603   7.7116   7.7686   7.8268
     7.9710   7.9808   8.0414   8.1633   8.1840   8.2081   8.2392   8.3119
     8.4738   8.4961   8.6014   8.6802   8.7073   8.7558   8.8962   8.9791
     8.9919   9.0868   9.1633   9.2053   9.2384   9.2795   9.3153   9.3609
     9.4282   9.4943   9.6085   9.6676   9.7068   9.7238   9.7534   9.8319
     9.8750   9.9217   9.9562   9.9793   9.9984  10.0309  10.0556  10.1092
    10.1450  10.2658  10.3290  10.4119  10.4345  10.4379  10.4496  10.5268
    10.6439  10.7046  10.7980  10.8540  10.8959  10.9409  10.9950  11.0208
    11.1386  11.1875  11.2423  11.2598  11.3030  11.3067  11.4819  11.5223
    11.5807  11.5882  11.6579  11.7743  11.8651  12.0010  12.0369  12.0490
    12.0695  12.0936  12.1238  12.1533  12.2175  12.2384  12.2756  12.3134
    12.3597  12.3790  12.4739  12.4969  12.5928  12.8934  12.9692  13.1136
    13.4576  13.4946  13.5122  13.9813  14.1099  14.2119  14.3329  14.5068
    14.6136  15.3385  15.5214  15.6594  16.1803  16.3183  16.3445  16.3904
    16.4082  16.4326  16.4497  16.4717  16.5384  16.5744  16.6065  16.6162
    16.6248  16.6701  16.7390  16.7454  16.8288  16.8589  16.8981  16.9353
    16.9377  16.9451  16.9936  17.0105  17.0198  17.0493  17.0762  17.1039
    17.1164  17.1577  17.1730  17.1960  17.2271  17.2312  17.2466  17.2690
    17.2991  17.3144  17.3551  17.3617  17.3960  17.4054

          k = 0.0000 0.0000-0.5000 ( 31464 PWs)   bands (ev):

   -42.7415 -42.6593 -42.4953 -42.4870 -42.4521 -42.4029 -42.3676 -42.3411
   -42.3142 -42.2920 -42.2725 -42.2561 -42.2466 -42.2213 -42.2042 -42.1883
   -42.1795 -42.1529 -42.1074 -42.0784 -19.1370 -19.0864 -19.0642 -19.0439
   -19.0340 -19.0132 -18.9664 -18.9438 -18.9289 -18.9203 -18.8859 -18.8833
   -18.8710 -18.8528 -18.8463 -18.8345 -18.8182 -18.8092 -18.7979 -18.7958
   -18.7869 -18.7747 -18.7601 -18.7550 -18.7525 -18.7299 -18.7011 -18.6930
   -18.6726 -18.6575 -18.6479 -18.6301 -18.6163 -18.6035 -18.5843 -18.5777
   -18.5612 -18.5391 -18.5275 -18.5248 -18.5062 -18.5003 -18.4857 -18.4715
   -18.4627 -18.4532 -18.4527 -18.4449 -18.4335 -18.4250 -18.4069 -18.4033
   -18.3825 -18.3771 -18.3694 -18.3530 -18.3355 -18.3120 -18.2766 -18.2726
    -2.1693  -2.0886  -1.0794  -1.0012  -0.9295  -0.8964  -0.8796  -0.7927
    -0.6924  -0.5276  -0.4122  -0.3933  -0.1915  -0.0915  -0.0653  -0.0376
     0.0064   0.0502   0.0605   0.1187   0.1582   0.1941   0.2322   0.2651
     0.3683   0.3838   0.4236   0.4657   0.4943   0.5198   0.5958   0.6776
     6.4179   6.5831   6.9337   7.1021   7.2418   7.3881   7.5169   7.6529
     7.8437   7.9469   8.0638   8.1079   8.1899   8.2670   8.3750   8.4427
     8.4732   8.5185   8.5542   8.6278   8.6921   8.7603   8.8093   8.8825
     8.9442   8.9890   9.0421   9.0609   9.1534   9.1904   9.2140   9.2801
     9.3199   9.3709   9.6621   9.7350   9.8640   9.9552   9.9729  10.0552
    10.0991  10.1244  10.1657  10.1818  10.2254  10.2524  10.3123  10.3539
    10.3870  10.4150  10.4501  10.4955  10.5379  10.5941  10.6468  10.6909
    10.8165  10.8557  10.9322  10.9465  10.9816  10.9961  11.0681  11.0788
    11.1116  11.1580  11.1925  11.2331  11.2520  11.2871  11.2952  11.3457
    11.3683  11.4581  11.4896  11.5192  11.5352  11.5667  11.6316  11.6892
    11.7355  11.7746  11.8400  11.9313  11.9421  11.9654  12.0252  12.1043
    12.1629  12.1840  12.2523  12.3535  12.8393  12.8960  12.9110  12.9484
    13.2673  13.5322  14.4200  14.4711  14.5480  14.6863  14.8734  15.0504
    15.1379  15.2841  15.3103  15.4354  15.4459  15.6422  15.7796  16.0266
    16.1250  16.2410  16.3847  16.4018  16.4504  16.4781  16.5540  16.5896
    16.6440  16.6821  16.7111  16.7189  16.7516  16.8127  16.8261  16.8338
    16.8864  16.8954  16.9281  16.9470  16.9615  17.0077  17.0363  17.0617
    17.0738  17.1163  17.1582  17.1904  17.2166  17.2318  17.3001  17.3122
    17.3541  17.3850  17.4349  17.4769  17.4891  17.5405

          k = 0.0000-0.5000-0.5000 ( 31256 PWs)   bands (ev):

   -42.7415 -42.6592 -42.4953 -42.4869 -42.4520 -42.4026 -42.3681 -42.3414
   -42.3142 -42.2919 -42.2719 -42.2563 -42.2468 -42.2207 -42.2041 -42.1885
   -42.1795 -42.1530 -42.1074 -42.0784 -19.1369 -19.0854 -19.0622 -19.0372
   -19.0317 -19.0134 -18.9673 -18.9548 -18.9414 -18.8978 -18.8954 -18.8834
   -18.8659 -18.8575 -18.8388 -18.8318 -18.8181 -18.8132 -18.8030 -18.7925
   -18.7851 -18.7699 -18.7591 -18.7547 -18.7461 -18.7321 -18.7297 -18.6903
   -18.6783 -18.6685 -18.6399 -18.6242 -18.6106 -18.5998 -18.5901 -18.5743
   -18.5470 -18.5454 -18.5317 -18.5173 -18.5083 -18.5005 -18.4836 -18.4731
   -18.4659 -18.4573 -18.4557 -18.4437 -18.4408 -18.4223 -18.4054 -18.3999
   -18.3883 -18.3747 -18.3645 -18.3513 -18.3378 -18.3082 -18.2773 -18.2728
    -1.9485  -1.8611  -1.5896  -1.5122  -0.8409  -0.7249  -0.6854  -0.5626
    -0.4945  -0.4628  -0.4389  -0.3746  -0.3158  -0.2396  -0.1959  -0.1089
    -0.0556  -0.0037   0.0081   0.1009   0.2109   0.2616   0.2742   0.3288
     0.3424   0.3920   0.4249   0.4765   0.5369   0.5508   0.5714   0.6039
     6.7289   6.8428   6.9868   7.1124   7.1347   7.3980   7.4493   7.6937
     7.7213   7.9501   8.0173   8.1018   8.1326   8.2212   8.2696   8.3004
     8.4375   8.4763   8.5358   8.5484   8.6041   8.6273   8.7648   8.8323
     8.8890   8.9787   9.0522   9.1330   9.2243   9.2970   9.4017   9.4378
     9.6673   9.7216   9.7621   9.8526   9.9394   9.9573  10.0377  10.1173
    10.1452  10.1756  10.2197  10.2572  10.3011  10.3293  10.3520  10.3657
    10.4406  10.4900  10.5423  10.5621  10.6101  10.6430  10.6859  10.7393
    10.8006  10.8068  10.8188  10.9066  10.9247  10.9634  11.0121  11.0378
    11.0501  11.0846  11.1408  11.1560  11.1917  11.2141  11.2259  11.2312
    11.2689  11.3365  11.3491  11.3846  11.4394  11.4793  11.5212  11.5434
    11.6112  11.6490  11.7215  11.8491  11.8996  11.9310  12.0604  12.1366
    12.1711  12.2113  12.2525  12.2741  12.3231  12.3554  12.5517  12.8578
    14.3049  14.4588  14.5692  14.7224  14.7482  14.8269  15.0082  15.1270
    15.1923  15.2115  15.2469  15.4057  15.5449  15.6021  15.7513  15.7660
    15.8134  15.8849  15.9146  15.9943  16.0525  16.1227  16.1290  16.2588
    16.3884  16.4476  16.5150  16.6226  16.6507  16.6924  16.7074  16.7480
    16.8258  16.8525  16.8567  16.8908  16.9427  17.0084  17.0237  17.1333
    17.1635  17.1831  17.2517  17.2864  17.3088  17.3870  17.4393  17.4893
    17.5020  17.5397  17.5525  17.5609  17.5816  17.6215

          k =-0.5000-0.5000-0.5000 ( 31144 PWs)   bands (ev):

   -42.7415 -42.6592 -42.4952 -42.4869 -42.4520 -42.4026 -42.3681 -42.3400
   -42.3172 -42.2914 -42.2716 -42.2547 -42.2473 -42.2204 -42.2043 -42.1888
   -42.1793 -42.1530 -42.1074 -42.0784 -19.1402 -19.0910 -19.0657 -19.0425
   -19.0313 -19.0158 -18.9595 -18.9286 -18.9227 -18.9071 -18.8943 -18.8838
   -18.8697 -18.8449 -18.8370 -18.8229 -18.8212 -18.8145 -18.8031 -18.7929
   -18.7872 -18.7787 -18.7639 -18.7550 -18.7447 -18.7370 -18.7269 -18.7106
   -18.6919 -18.6790 -18.6485 -18.6287 -18.5996 -18.5949 -18.5842 -18.5712
   -18.5473 -18.5316 -18.5240 -18.5189 -18.5078 -18.5006 -18.4934 -18.4790
   -18.4749 -18.4609 -18.4524 -18.4473 -18.4362 -18.4253 -18.4002 -18.3927
   -18.3866 -18.3741 -18.3632 -18.3538 -18.3317 -18.3102 -18.2770 -18.2724
    -1.8034  -1.6015  -1.4365  -1.3851  -1.2925  -1.1347  -1.0360  -0.9788
    -0.3360  -0.2622  -0.2378  -0.1927  -0.1853  -0.1719  -0.1274  -0.1227
    -0.0242   0.0097   0.0652   0.1228   0.1773   0.2190   0.2811   0.3070
     0.3173   0.3634   0.3925   0.4640   0.4858   0.5188   0.5536   0.6434
     6.9089   7.0345   7.0878   7.2100   7.3259   7.3769   7.5633   7.6757
     7.7253   7.8499   7.8683   8.0539   8.0837   8.1139   8.2287   8.3121
     8.3619   8.4695   8.5307   8.6354   8.7634   8.7759   8.8064   8.8791
     9.1301   9.1850   9.2718   9.3385   9.3803   9.5174   9.5275   9.5545
     9.6542   9.6835   9.7301   9.7704   9.8135   9.8317   9.8661   9.9091
     9.9397   9.9760   9.9895  10.0366  10.0682  10.1194  10.1636  10.1857
    10.2209  10.2717  10.3063  10.3513  10.4151  10.4563  10.4932  10.5800
    10.7020  10.7641  10.7815  10.8271  10.8455  10.8719  10.9187  10.9787
    11.0023  11.0103  11.0549  11.1299  11.1333  11.1865  11.2539  11.3286
    11.3565  11.3922  11.4522  11.5545  11.5675  11.6357  11.7175  11.7405
    11.7992  11.8564  11.9063  11.9532  12.0199  12.0724  12.1472  12.1518
    12.2045  12.2745  12.3047  12.3605  12.4097  12.4999  12.6664  12.7781
    14.6658  14.7214  14.7819  14.8422  14.8577  14.8787  15.0280  15.1578
    15.1713  15.2673  15.3253  15.3593  15.4297  15.4573  15.5900  15.6648
    15.6783  15.7137  15.8079  15.8306  15.8413  15.8974  16.0058  16.1252
    16.1481  16.1788  16.2588  16.3282  16.3996  16.4523  16.5592  16.5675
    16.6543  16.6867  16.6945  16.7489  16.7627  17.0219  17.0444  17.2596
    17.3200  17.3894  17.4315  17.4978  17.5206  17.5434  17.5726  17.5988
    17.6128  17.6267  17.6801  17.6904  17.7030  17.7092

          k =-0.5000 0.0000 0.0000 ( 31464 PWs)   bands (ev):

   -42.7415 -42.6593 -42.4953 -42.4870 -42.4522 -42.4029 -42.3675 -42.3400
   -42.3171 -42.2909 -42.2723 -42.2529 -42.2478 -42.2209 -42.2072 -42.1892
   -42.1777 -42.1527 -42.1074 -42.0783 -19.1369 -19.0834 -19.0651 -19.0508
   -19.0313 -19.0124 -18.9828 -18.9577 -18.9272 -18.9056 -18.9013 -18.8855
   -18.8619 -18.8456 -18.8418 -18.8238 -18.8120 -18.8002 -18.7889 -18.7833
   -18.7819 -18.7741 -18.7630 -18.7535 -18.7465 -18.7340 -18.7104 -18.7069
   -18.6864 -18.6525 -18.6468 -18.6338 -18.6240 -18.5986 -18.5847 -18.5679
   -18.5490 -18.5468 -18.5377 -18.5263 -18.5159 -18.5072 -18.4924 -18.4823
   -18.4772 -18.4489 -18.4400 -18.4356 -18.4321 -18.4197 -18.4145 -18.3973
   -18.3822 -18.3766 -18.3614 -18.3502 -18.3323 -18.3151 -18.2791 -18.2711
    -2.2445  -1.9865  -1.1189  -0.9894  -0.9387  -0.9107  -0.8517  -0.7424
    -0.6577  -0.5593  -0.4984  -0.3519  -0.2715  -0.1055  -0.0448  -0.0297
     0.0173   0.0378   0.0489   0.0718   0.1137   0.1826   0.1976   0.2878
     0.3350   0.3798   0.4061   0.4517   0.5062   0.6175   0.6776   0.7611
     6.2886   6.7731   6.9929   7.1573   7.3590   7.5690   7.6945   7.7941
     7.8832   7.9732   8.0057   8.0418   8.1083   8.1591   8.2254   8.3798
     8.4290   8.4831   8.5353   8.5936   8.7037   8.7204   8.7646   8.7881
     8.8679   8.9019   8.9352   9.0560   9.0958   9.1602   9.1924   9.3155
     9.3188   9.5356   9.6866   9.7415   9.8384   9.9076   9.9524   9.9663
    10.0187  10.0443  10.0700  10.0915  10.1396  10.1629  10.2216  10.2826
    10.3634  10.3837  10.3990  10.4378  10.4455  10.5751  10.6319  10.6983
    10.7468  10.7837  10.8327  10.9247  10.9800  11.0181  11.0512  11.0792
    11.1231  11.1412  11.1913  11.2175  11.2604  11.3123  11.3712  11.4038
    11.4460  11.4889  11.5251  11.5542  11.5962  11.6242  11.7069  11.7409
    11.8623  11.8927  11.9705  12.1036  12.1055  12.1283  12.1386  12.1518
    12.2042  12.2536  12.2812  12.5169  12.8497  12.8646  12.9542  12.9886
    13.0129  13.8540  14.1643  14.2535  14.6798  14.8416  14.9056  14.9488
    15.0216  15.1763  15.2415  15.5180  15.5239  15.8343  16.0219  16.1499
    16.2449  16.3264  16.3552  16.4104  16.4832  16.5438  16.5486  16.5570
    16.6113  16.6366  16.6665  16.6929  16.6973  16.7758  16.7910  16.8703
    16.8880  16.9076  16.9151  16.9665  16.9742  17.0135  17.0413  17.0773
    17.0998  17.1355  17.1887  17.2181  17.2353  17.2500  17.2945  17.3005
    17.3306  17.3389  17.4103  17.4634  17.5012  17.5413

          k = 0.0000-0.5000 0.0000 ( 31464 PWs)   bands (ev):

   -42.7415 -42.6593 -42.4953 -42.4870 -42.4520 -42.4028 -42.3682 -42.3412
   -42.3143 -42.2914 -42.2719 -42.2544 -42.2476 -42.2204 -42.2077 -42.1887
   -42.1777 -42.1528 -42.1074 -42.0784 -19.1406 -19.0858 -19.0775 -19.0492
   -19.0393 -19.0249 -18.9533 -18.9323 -18.9074 -18.8958 -18.8856 -18.8652
   -18.8646 -18.8529 -18.8449 -18.8397 -18.8283 -18.8217 -18.8123 -18.8050
   -18.7847 -18.7765 -18.7708 -18.7541 -18.7323 -18.7236 -18.7117 -18.6936
   -18.6787 -18.6436 -18.6348 -18.6326 -18.6185 -18.6096 -18.5900 -18.5802
   -18.5652 -18.5478 -18.5436 -18.5270 -18.5183 -18.5144 -18.4958 -18.4571
   -18.4551 -18.4533 -18.4475 -18.4359 -18.4288 -18.4231 -18.4193 -18.3939
   -18.3811 -18.3733 -18.3629 -18.3516 -18.3273 -18.3190 -18.2779 -18.2727
    -2.2562  -1.9247  -1.2926  -1.1630  -0.8747  -0.8047  -0.7452  -0.6801
    -0.6310  -0.5265  -0.4536  -0.3839  -0.3130  -0.1423  -0.0458  -0.0095
     0.0033   0.0074   0.0526   0.1188   0.1330   0.1852   0.2532   0.3053
     0.3325   0.3665   0.4140   0.4902   0.5077   0.5541   0.6366   0.6566
     6.3843   6.6973   6.8757   7.1107   7.2516   7.3619   7.6003   7.7327
     7.7915   7.9072   7.9433   7.9750   8.1086   8.1858   8.2892   8.3981
     8.4597   8.5307   8.6312   8.6524   8.6841   8.8181   8.8470   8.9285
     8.9828   9.0204   9.0498   9.0894   9.1786   9.2099   9.3057   9.3074
     9.4792   9.5431   9.6505   9.7656   9.8809   9.9055   9.9378   9.9733
     9.9944  10.0178  10.0432  10.1206  10.1818  10.2412  10.2882  10.3659
    10.3779  10.3997  10.4840  10.5619  10.6082  10.6985  10.7548  10.8016
    10.8177  10.8853  10.9081  10.9370  10.9610  11.0080  11.0558  11.0859
    11.1246  11.1358  11.1884  11.2172  11.2735  11.2970  11.3093  11.3635
    11.3823  11.4290  11.4616  11.4745  11.4940  11.5496  11.5776  11.6761
    11.7483  11.7965  11.8295  11.8590  11.8968  11.9935  12.0051  12.0851
    12.1519  12.1936  12.2685  12.3512  12.8578  12.9207  12.9421  12.9599
    12.9904  13.9002  14.1814  14.2212  14.7882  14.9017  14.9796  14.9921
    15.0645  15.2970  15.3281  15.4443  15.5426  15.6725  15.7329  15.9656
    16.1128  16.2534  16.3451  16.3810  16.4266  16.4396  16.4509  16.5189
    16.5355  16.5643  16.6443  16.6737  16.6934  16.7417  16.7842  16.8124
    16.8330  16.8544  16.8788  16.9987  17.0417  17.0517  17.1124  17.1234
    17.1372  17.1893  17.2361  17.2672  17.2863  17.2991  17.3225  17.3328
    17.4063  17.4389  17.4482  17.4710  17.4974  17.5307

          k =-0.5000 0.0000 0.5000 ( 31256 PWs)   bands (ev):

   -42.7415 -42.6592 -42.4952 -42.4870 -42.4521 -42.4029 -42.3675 -42.3397
   -42.3171 -42.2915 -42.2722 -42.2546 -42.2470 -42.2209 -42.2044 -42.1886
   -42.1793 -42.1529 -42.1074 -42.0784 -19.1405 -19.0834 -19.0715 -19.0477
   -19.0321 -19.0164 -18.9533 -18.9236 -18.9216 -18.9046 -18.8982 -18.8768
   -18.8711 -18.8569 -18.8393 -18.8326 -18.8315 -18.8225 -18.8026 -18.7939
   -18.7877 -18.7794 -18.7690 -18.7572 -18.7469 -18.7345 -18.7067 -18.7037
   -18.6705 -18.6645 -18.6438 -18.6398 -18.6070 -18.5966 -18.5820 -18.5765
   -18.5551 -18.5349 -18.5205 -18.5152 -18.5117 -18.4974 -18.4865 -18.4783
   -18.4665 -18.4619 -18.4542 -18.4465 -18.4379 -18.4247 -18.4054 -18.3938
   -18.3840 -18.3765 -18.3678 -18.3546 -18.3298 -18.3141 -18.2775 -18.2718
    -1.9881  -1.8077  -1.6397  -1.4866  -0.8240  -0.6929  -0.5680  -0.5267
    -0.5124  -0.4690  -0.4307  -0.3910  -0.3227  -0.2898  -0.2650  -0.1720
    -0.1468  -0.0598   0.0628   0.1046   0.1474   0.1713   0.2772   0.3247
     0.3732   0.3883   0.4181   0.4454   0.5650   0.6393   0.6663   0.7009
     6.5030   6.7695   7.1562   7.3044   7.4822   7.5630   7.6520   7.7430
     7.7760   7.8850   7.9905   8.0237   8.1183   8.2382   8.2579   8.2725
     8.4271   8.4352   8.5217   8.5300   8.6298   8.6655   8.7779   8.7991
     8.8221   8.8656   8.9000   9.0451   9.1325   9.2324   9.2922   9.3540
     9.4738   9.5593   9.7134   9.8351   9.8536   9.8928   9.9150  10.0782
    10.0837  10.1101  10.1648  10.2187  10.2295  10.2539  10.2702  10.3553
    10.3597  10.3800  10.4435  10.5260  10.5319  10.6210  10.7009  10.7471
    10.7784  10.7837  10.8257  10.8640  10.9500  10.9655  11.0011  11.0397
    11.0493  11.1089  11.1190  11.1500  11.2042  11.2479  11.2527  11.3201
    11.3606  11.3984  11.4064  11.4472  11.5120  11.5730  11.5902  11.7729
    11.8253  11.8617  11.8652  11.9192  11.9486  12.0278  12.1312  12.1724
    12.1991  12.2403  12.3480  12.3769  12.4053  12.4851  12.5597  12.8020
    14.2218  14.4036  14.4807  14.6146  14.7605  14.8433  14.8571  14.9787
    15.2480  15.3014  15.4146  15.4639  15.5222  15.6509  15.6931  15.7668
    15.8309  15.9213  15.9660  16.0344  16.1396  16.1786  16.2393  16.3803
    16.4749  16.5035  16.5412  16.5595  16.6441  16.6762  16.7312  16.7661
    16.8071  16.8584  16.8703  16.9020  16.9557  17.0294  17.0583  17.0863
    17.1175  17.1604  17.2388  17.2693  17.3882  17.4324  17.4614  17.4882
    17.5130  17.5221  17.5657  17.5867  17.6170  17.6294

          k =-0.5000 0.5000 0.0000 ( 31256 PWs)   bands (ev):

   -42.7415 -42.6592 -42.4952 -42.4870 -42.4520 -42.4028 -42.3682 -42.3399
   -42.3171 -42.2908 -42.2717 -42.2531 -42.2480 -42.2204 -42.2071 -42.1893
   -42.1778 -42.1528 -42.1074 -42.0783 -19.1365 -19.0868 -19.0608 -19.0354
   -19.0331 -19.0144 -18.9642 -18.9443 -18.9282 -18.9187 -18.8989 -18.8848
   -18.8618 -18.8593 -18.8518 -18.8327 -18.8193 -18.8128 -18.8091 -18.7974
   -18.7902 -18.7767 -18.7576 -18.7487 -18.7447 -18.7242 -18.7127 -18.6973
   -18.6880 -18.6421 -18.6351 -18.6268 -18.6161 -18.6029 -18.5771 -18.5654
   -18.5492 -18.5442 -18.5333 -18.5239 -18.5230 -18.5052 -18.4950 -18.4758
   -18.4649 -18.4510 -18.4436 -18.4370 -18.4350 -18.4276 -18.4161 -18.3968
   -18.3814 -18.3788 -18.3634 -18.3508 -18.3353 -18.3164 -18.2798 -18.2695
    -2.0198  -1.7643  -1.6702  -1.4036  -0.8175  -0.7497  -0.6454  -0.5786
    -0.4831  -0.4717  -0.4309  -0.3792  -0.3551  -0.3152  -0.2242  -0.1415
    -0.0757  -0.0160   0.0199   0.0681   0.1300   0.1550   0.2178   0.3651
     0.4075   0.4362   0.4546   0.5271   0.5294   0.5650   0.6598   0.7012
     6.5773   6.8951   6.9644   7.1943   7.4242   7.6280   7.6953   7.8033
     7.9250   7.9873   7.9940   8.0299   8.0575   8.1544   8.2051   8.2689
     8.3228   8.3949   8.4552   8.4895   8.5448   8.6357   8.7017   8.7500
     8.7865   8.8066   8.8551   9.0837   9.2290   9.2902   9.3699   9.3945
     9.5927   9.6502   9.7458   9.7990   9.8171   9.9104   9.9702  10.0474
    10.1088  10.1113  10.1948  10.2185  10.2685  10.3199  10.3298  10.3774
    10.4032  10.4511  10.4928  10.5299  10.5724  10.5917  10.6579  10.7105
    10.7595  10.8179  10.8372  10.8564  10.9026  10.9485  10.9782  11.0310
    11.0753  11.0939  11.1676  11.1838  11.2312  11.2704  11.3038  11.3205
    11.3549  11.3958  11.4318  11.4549  11.4972  11.5713  11.5850  11.6478
    11.7306  11.7899  11.8642  11.9390  12.0153  12.0807  12.0943  12.1501
    12.1854  12.2202  12.2677  12.2817  12.3409  12.4552  12.5257  12.7849
    14.1712  14.3358  14.5045  14.6813  14.7794  14.9443  15.0111  15.0929
    15.1058  15.1782  15.3674  15.4437  15.5036  15.6484  15.7000  15.7728
    15.8105  15.8769  15.9094  16.0669  16.1890  16.2648  16.3671  16.4240
    16.5015  16.5550  16.5801  16.5942  16.6513  16.6896  16.7385  16.7898
    16.8695  16.9117  16.9272  16.9631  16.9870  17.0255  17.0553  17.1093
    17.1253  17.1484  17.1903  17.2430  17.2889  17.3000  17.3442  17.3570
    17.4605  17.5011  17.5544  17.5770  17.6245  17.6283

     the Fermi energy is    15.2956 ev

!    total energy              =   -5057.77707899 Ry
     total all-electron energy =    -43491.510184 Ry
     estimated scf accuracy    <          8.7E-09 Ry
     smearing contrib. (-TS)   =      -0.00359606 Ry
     internal energy E=F+TS    =   -5057.77348294 Ry

     The total energy is F=E-TS. E is the sum of the following terms:
     one-electron contribution =    -919.65474812 Ry
     hartree contribution      =     736.52838221 Ry
     xc contribution           =    -591.87364761 Ry
     ewald contribution        =   -2305.11321156 Ry
     one-center paw contrib.   =   -1977.66025786 Ry

     convergence has been achieved in  20 iterations

     Forces acting on atoms (cartesian axes, Ry/au):

     atom    1 type  1   force =    -0.00792206   -0.00296596   -0.00790828
     atom    2 type  2   force =    -0.00042123   -0.01084431   -0.00978305
     atom    3 type  3   force =    -0.00704704   -0.00078081   -0.00128053
     atom    4 type  2   force =    -0.00190654   -0.00179795   -0.00256498
     atom    5 type  3   force =    -0.00079537   -0.00842948    0.00022287
     atom    6 type  2   force =    -0.01028897   -0.01271767   -0.00058977
     atom    7 type  3   force =    -0.00155539   -0.00044833   -0.00781801
     atom    8 type  2   force =    -0.00949570    0.00037936   -0.00912372
     atom    9 type  3   force =    -0.00979955   -0.00762172    0.00131828
     atom   10 type  2   force =    -0.00282047   -0.00878323   -0.00002503
     atom   11 type  3   force =    -0.00756446    0.00031400    0.00669344
     atom   12 type  2   force =    -0.00224088    0.00002043    0.01037122
     atom   13 type  1   force =     0.00081226   -0.00862671    0.00781011
     atom   14 type  2   force =    -0.00808766   -0.00988806    0.01179878
     atom   15 type  3   force =    -0.00059298   -0.00122827    0.00086917
     atom   16 type  2   force =    -0.01087487   -0.00068776    0.00143436
     atom   17 type  1   force =    -0.00939986   -0.00138171   -0.00555182
     atom   18 type  2   force =     0.00093663    0.00253162   -0.01156080
     atom   19 type  3   force =    -0.00647786    0.01307545   -0.00084723
     atom   20 type  2   force =    -0.00015217    0.00990278   -0.00031171
     atom   21 type  3   force =     0.00040886   -0.00052660    0.00083324
     atom   22 type  2   force =    -0.01031028    0.00367530    0.00073047
     atom   23 type  3   force =    -0.00066380    0.00660780   -0.00866167
     atom   24 type  2   force =    -0.00995643    0.00623359   -0.00925728
     atom   25 type  1   force =    -0.00701912    0.00091314    0.00007277
     atom   26 type  2   force =     0.00076613    0.00045065    0.00226361
     atom   27 type  1   force =    -0.00543266    0.00651534    0.00529994
     atom   28 type  2   force =     0.00083697    0.01109784    0.00780422
     atom   29 type  3   force =    -0.00120694   -0.00056085    0.01163688
     atom   30 type  2   force =    -0.01301976    0.00150561    0.00614396
     atom   31 type  1   force =    -0.00024549    0.00713106    0.00079378
     atom   32 type  2   force =    -0.00619465    0.00732397   -0.00078682
     atom   33 type  3   force =     0.00114168   -0.00623968   -0.00742187
     atom   34 type  2   force =     0.01076101   -0.00931123   -0.00886760
     atom   35 type  3   force =     0.00107127   -0.00141194   -0.00037915
     atom   36 type  2   force =     0.01007009    0.00048363   -0.00250692
     atom   37 type  1   force =     0.00904300   -0.00617343    0.00079975
     atom   38 type  2   force =     0.00004185   -0.00908098   -0.00241013
     atom   39 type  3   force =     0.00598313    0.00138006   -0.00758375
     atom   40 type  2   force =     0.00042750   -0.00323841   -0.01123156
     atom   41 type  3   force =    -0.00008440   -0.00581408   -0.00012021
     atom   42 type  2   force =     0.01206498   -0.01322816   -0.00101746
     atom   43 type  3   force =     0.00099870   -0.00040704    0.00806459
     atom   44 type  2   force =     0.00981070    0.00029677    0.00950644
     atom   45 type  1   force =     0.00572434   -0.00430968    0.00599762
     atom   46 type  2   force =    -0.00067077   -0.01035774    0.01025288
     atom   47 type  3   force =     0.00782736    0.00075635    0.00029134
     atom   48 type  2   force =     0.00164390   -0.00264126    0.00297164
     atom   49 type  3   force =     0.00223744   -0.00102637   -0.00992083
     atom   50 type  2   force =     0.01273730    0.00128188   -0.00598046
     atom   51 type  1   force =     0.00034828    0.00685081   -0.00075757
     atom   52 type  2   force =     0.00600619    0.00782189   -0.00013527
     atom   53 type  1   force =     0.00885074    0.00049876    0.00016241
     atom   54 type  2   force =    -0.00031385    0.00054347   -0.00185618
     atom   55 type  1   force =     0.00560590    0.00586396   -0.00533479
     atom   56 type  2   force =    -0.00205698    0.00955337   -0.00700558
     atom   57 type  3   force =     0.00059857   -0.00002590   -0.00008758
     atom   58 type  2   force =     0.01099991    0.00295043   -0.00017501
     atom   59 type  3   force =     0.00007818    0.00627597    0.00773425
     atom   60 type  2   force =     0.01007750    0.00743456    0.00812689
     atom   61 type  1   force =     0.00977838   -0.00204644    0.00515200
     atom   62 type  2   force =    -0.00110093    0.00163779    0.01213905
     atom   63 type  3   force =     0.00644370    0.01182596    0.00015958
     atom   64 type  2   force =     0.00158666    0.00946814    0.00140706

     Total force =     0.087008     Total SCF correction =     0.000233


     Computing stress (Cartesian axis) and pressure

          total   stress  (Ry/bohr**3)                   (kbar)     P=        6.43
   0.00007314  -0.00002753   0.00006840           10.76       -4.05       10.06
  -0.00002753   0.00003494  -0.00003187           -4.05        5.14       -4.69
   0.00006840  -0.00003187   0.00002306           10.06       -4.69        3.39

 
     init_run     :      3.24s CPU      3.41s WALL (       1 calls)
     electrons    :    161.31s CPU    164.62s WALL (       1 calls)
     forces       :      1.80s CPU      1.85s WALL (       1 calls)
     stress       :     17.74s CPU     17.90s WALL (       1 calls)

     Called by init_run:
     wfcinit      :      2.79s CPU      2.90s WALL (       1 calls)
     potinit      :      0.21s CPU      0.22s WALL (       1 calls)
     hinit0       :      0.12s CPU      0.15s WALL (       1 calls)

     Called by electrons:
     c_bands      :    139.92s CPU    142.38s WALL (      20 calls)
     sum_band     :     15.31s CPU     15.76s WALL (      20 calls)
     v_of_rho     :      0.74s CPU      0.76s WALL (      21 calls)
     newd         :      1.31s CPU      1.53s WALL (      21 calls)
     PAW_pot      :      3.26s CPU      3.34s WALL (      21 calls)
     mix_rho      :      0.97s CPU      1.04s WALL (      20 calls)

     Called by c_bands:
     init_us_2    :      1.70s CPU      1.72s WALL (      86 calls)
     init_us_2:cp :      1.70s CPU      1.72s WALL (      86 calls)
     cegterg      :    125.47s CPU    127.84s WALL (      40 calls)

     Called by *egterg:
     cdiaghg      :     15.39s CPU     15.65s WALL (     244 calls)
     h_psi        :     60.15s CPU     61.06s WALL (     246 calls)
     s_psi        :     15.61s CPU     15.73s WALL (     246 calls)
     g_psi        :      0.28s CPU      0.28s WALL (     204 calls)

     Called by h_psi:
     h_psi:calbec :     15.42s CPU     15.54s WALL (     246 calls)
     vloc_psi     :     28.48s CPU     28.96s WALL (     246 calls)
     add_vuspsi   :     15.73s CPU     15.89s WALL (     246 calls)

     General routines
     calbec       :     22.71s CPU     22.89s WALL (     296 calls)
     fft          :      0.40s CPU      0.43s WALL (     256 calls)
     ffts         :      0.49s CPU      0.49s WALL (     417 calls)
     fftw         :     29.33s CPU     29.80s WALL (   62214 calls)
 
     Parallel routines
 
     PWSCF        :   3m 4.32s CPU   3m 8.41s WALL

 
   This run was terminated on:  17:16:59  11May2026            

=------------------------------------------------------------------------------=
   JOB DONE.
=------------------------------------------------------------------------------=
