
     Program PWSCF v.7.1 starts on 11May2026 at 17:13:51 

     This program is part of the open-source Quantum ESPRESSO suite
     for quantum simulation of materials; please cite
         "P. Giannozzi et al., J. Phys.:Condens. Matter 21 395502 (2009);
         "P. Giannozzi et al., J. Phys.:Condens. Matter 29 465901 (2017);
         "P. Giannozzi et al., J. Chem. Phys. 152 154105 (2020);
          URL http://www.quantum-espresso.org", 
     in publications or presentations arising from this work. More details at
     http://www.quantum-espresso.org/quote

     Parallel version (MPI & OpenMP), running on      32 processor cores
     Number of MPI processes:                32
     Threads/MPI process:                     1

     MPI processes distributed on     1 nodes
     91075 MiB available memory on the printing compute node when the environment starts
 
     Reading input from TiAlN_x0375finalrelaxedresult8436025.in

     Current dimensions of program PWSCF are:
     Max number of different atomic species (ntypx) = 10
     Max number of k-points (npk) = 150000
     Max angular momentum in pseudopotentials (lmaxx) =  4
     file Al.pbe-n-kjpaw_psl.1.0.0.UPF: wavefunction(s)  3S 3P renormalized
     file N.pbe-n-kjpaw_psl.1.0.0.UPF: wavefunction(s)  2S renormalized
     file Ti.pbe-spn-kjpaw_psl.1.0.0.UPF: wavefunction(s)  3S 3P 3D renormalized
 
     K-points division:     npool     =       4
     R & G space division:  proc/nbgrp/npool/nimage =       8
     Subspace diagonalization in iterative solution of the eigenvalue problem:
     one sub-group per band group will be used
     scalapack distributed-memory algorithm (size of sub-group:  2*  2 procs)

 
     Parallelization info
     --------------------
     sticks:   dense  smooth     PW     G-vecs:    dense   smooth      PW
     Min         606     606    164                31765    31765    4531
     Max         608     608    166                31769    31769    4535
     Sum        4857    4857   1321               254127   254127   36257
 
     Using Slab Decomposition
 


     bravais-lattice index     =            0
     lattice parameter (alat)  =      15.9418  a.u.
     unit-cell volume          =    4051.4471 (a.u.)^3
     number of atoms/cell      =           64
     number of atomic types    =            3
     number of electrons       =       436.00
     number of Kohn-Sham states=          262
     kinetic-energy cutoff     =      60.0000  Ry
     charge density cutoff     =     240.0000  Ry
     scf convergence threshold =      1.0E-08
     mixing beta               =       0.2000
     number of iterations used =            8  local-TF  mixing
     Exchange-correlation= SLA  PW   PBX  PBC
                           (   1   4   3   4   0   0   0)

     celldm(1)=  15.941777  celldm(2)=   0.000000  celldm(3)=   0.000000
     celldm(4)=   0.000000  celldm(5)=   0.000000  celldm(6)=   0.000000

     crystal axes: (cart. coord. in units of alat)
               a(1) = (   1.000000   0.000000   0.000000 )  
               a(2) = (   0.000000   1.000000   0.000000 )  
               a(3) = (   0.000000   0.000000   1.000000 )  

     reciprocal axes: (cart. coord. in units 2 pi/alat)
               b(1) = (  1.000000  0.000000  0.000000 )  
               b(2) = (  0.000000  1.000000  0.000000 )  
               b(3) = (  0.000000  0.000000  1.000000 )  


     PseudoPot. # 1 for Al read from file:
     ../../../pseudo/Al.pbe-n-kjpaw_psl.1.0.0.UPF
     MD5 check sum: 502b6b27b9c6270cab5dd1084b96fa6d
     Pseudo is Projector augmented-wave + core cor, Zval =  3.0
     Generated using &quot;atomic&quot; code by A. Dal Corso  v.6.3
     Shape of augmentation charge: PSQ
     Using radial grid of 1135 points,  6 beta functions with: 
                l(1) =   0
                l(2) =   0
                l(3) =   1
                l(4) =   1
                l(5) =   2
                l(6) =   2
     Q(r) pseudized with 0 coefficients 


     PseudoPot. # 2 for N  read from file:
     ../../../pseudo/N.pbe-n-kjpaw_psl.1.0.0.UPF
     MD5 check sum: 14c48229446f9f2d411169a3abcbc3fa
     Pseudo is Projector augmented-wave + core cor, Zval =  5.0
     Generated using &quot;atomic&quot; code by A. Dal Corso  v.6.3
     Shape of augmentation charge: PSQ
     Using radial grid of 1085 points,  4 beta functions with: 
                l(1) =   0
                l(2) =   0
                l(3) =   1
                l(4) =   1
     Q(r) pseudized with 0 coefficients 


     PseudoPot. # 3 for Ti read from file:
     ../../../pseudo/Ti.pbe-spn-kjpaw_psl.1.0.0.UPF
     MD5 check sum: 01f69b0d8ba4438b2e03ac6ea4af1c0b
     Pseudo is Projector augmented-wave + core cor, Zval = 12.0
     Generated using &quot;atomic&quot; code by A. Dal Corso  v.6.2.2
     Shape of augmentation charge: PSQ
     Using radial grid of 1177 points,  6 beta functions with: 
                l(1) =   0
                l(2) =   0
                l(3) =   1
                l(4) =   1
                l(5) =   2
                l(6) =   2
     Q(r) pseudized with 0 coefficients 


     atomic species   valence    mass     pseudopotential
        Al             3.00    26.98200     Al( 1.00)
        N              5.00    14.00700     N ( 1.00)
        Ti            12.00    47.86700     Ti( 1.00)

     No symmetry found



   Cartesian axes

     site n.     atom                  positions (alat units)
         1           Al  tau(   1) = (  -0.0014417  -0.0020821  -0.0042172  )
         2           N   tau(   2) = (   0.2362701  -0.0021987  -0.0088268  )
         3           Ti  tau(   3) = (   0.0022923   0.2420209   0.2529365  )
         4           N   tau(   4) = (   0.2469301   0.2471929   0.2481078  )
         5           Ti  tau(   5) = (   0.2462726   0.0019634   0.2482059  )
         6           N   tau(   6) = (  -0.0109880  -0.0013887   0.2350772  )
         7           Ti  tau(   7) = (   0.2510779   0.2508563   0.0018142  )
         8           N   tau(   8) = (  -0.0017311   0.2498984  -0.0013897  )
         9           Ti  tau(   9) = (  -0.0007680   0.0042366   0.4881498  )
        10           N   tau(  10) = (   0.2460872  -0.0074941   0.5043709  )
        11           Ti  tau(  11) = (   0.0038673   0.2477011   0.7372849  )
        12           N   tau(  12) = (   0.2461801   0.2347825   0.7419765  )
        13           Al  tau(  13) = (   0.2419375  -0.0039007   0.7421787  )
        14           N   tau(  14) = (  -0.0045578  -0.0063681   0.7480375  )
        15           Ti  tau(  15) = (   0.2481073   0.2482945   0.4938293  )
        16           N   tau(  16) = (   0.0011821   0.2604842   0.4959216  )
        17           Al  tau(  17) = (  -0.0049987   0.4968096  -0.0001142  )
        18           N   tau(  18) = (   0.2329889   0.4960590  -0.0004674  )
        19           Ti  tau(  19) = (   0.0079816   0.7487650   0.2509780  )
        20           N   tau(  20) = (   0.2569378   0.7432976   0.2550855  )
        21           Ti  tau(  21) = (   0.2491851   0.4924304   0.2439434  )
        22           N   tau(  22) = (  -0.0091198   0.4973978   0.2459441  )
        23           Ti  tau(  23) = (   0.2526539   0.7385064   0.0011509  )
        24           N   tau(  24) = (  -0.0050362   0.7406517  -0.0040350  )
        25           Al  tau(  25) = (  -0.0012349   0.4996314   0.4959419  )
        26           N   tau(  26) = (   0.2384846   0.5023003   0.4961978  )
        27           Al  tau(  27) = (   0.0003696   0.7420001   0.7440840  )
        28           N   tau(  28) = (   0.2404907   0.7496089   0.7372735  )
        29           Ti  tau(  29) = (   0.2554414   0.4934319   0.7460813  )
        30           N   tau(  30) = (  -0.0072505   0.5012683   0.7439076  )
        31           Al  tau(  31) = (   0.2473004   0.7419941   0.4970445  )
        32           N   tau(  32) = (   0.0053954   0.7365317   0.5006325  )
        33           Ti  tau(  33) = (   0.4878828   0.0040702   0.0006097  )
        34           N   tau(  34) = (   0.7490688  -0.0056907  -0.0013387  )
        35           Ti  tau(  35) = (   0.4918602   0.2482613   0.2497134  )
        36           N   tau(  36) = (   0.7415457   0.2463867   0.2459532  )
        37           Al  tau(  37) = (   0.7417270  -0.0039489   0.2397138  )
        38           N   tau(  38) = (   0.5057583  -0.0074690   0.2463276  )
        39           Ti  tau(  39) = (   0.7377360   0.2481411   0.0001619  )
        40           N   tau(  40) = (   0.4958445   0.2470611   0.0012439  )
        41           Ti  tau(  41) = (   0.4954291   0.0061794   0.4947046  )
        42           N   tau(  42) = (   0.7438459  -0.0017945   0.4965751  )
        43           Ti  tau(  43) = (   0.4910915   0.2517894   0.7401837  )
        44           N   tau(  44) = (   0.7434915   0.2440442   0.7436404  )
        45           Al  tau(  45) = (   0.7447524  -0.0038390   0.7482943  )
        46           N   tau(  46) = (   0.4997307  -0.0031628   0.7441703  )
        47           Ti  tau(  47) = (   0.7422985   0.2423960   0.4946091  )
        48           N   tau(  48) = (   0.4945093   0.2481264   0.4941088  )
        49           Ti  tau(  49) = (   0.4880552   0.4912304  -0.0029370  )
        50           N   tau(  50) = (   0.7492158   0.5003854  -0.0005466  )
        51           Al  tau(  51) = (   0.4977662   0.7413218   0.2485266  )
        52           N   tau(  52) = (   0.7387308   0.7440568   0.2441679  )
        53           Al  tau(  53) = (   0.7450363   0.4991912   0.2467006  )
        54           N   tau(  54) = (   0.5067771   0.5024880   0.2474292  )
        55           Al  tau(  55) = (   0.7446717   0.7416647   0.0003786  )
        56           N   tau(  56) = (   0.5038603   0.7427239   0.0070694  )
        57           Ti  tau(  57) = (   0.4934957   0.4881771   0.4981609  )
        58           N   tau(  58) = (   0.7505101   0.4978471   0.4954249  )
        59           Ti  tau(  59) = (   0.4891630   0.7368381   0.7437709  )
        60           N   tau(  60) = (   0.7480881   0.7445780   0.7468642  )
        61           Al  tau(  61) = (   0.7487911   0.4992680   0.7431597  )
        62           N   tau(  62) = (   0.5122073   0.4973883   0.7424508  )
        63           Ti  tau(  63) = (   0.7404328   0.7488903   0.4961065  )
        64           N   tau(  64) = (   0.4886954   0.7410941   0.4898729  )

     number of k points=     8  Gaussian smearing, width (Ry)=  0.0050
                       cart. coord. in units 2pi/alat
        k(    1) = (   0.0000000   0.0000000   0.0000000), wk =   0.2500000
        k(    2) = (   0.0000000   0.0000000  -0.5000000), wk =   0.2500000
        k(    3) = (   0.0000000  -0.5000000  -0.5000000), wk =   0.2500000
        k(    4) = (  -0.5000000  -0.5000000  -0.5000000), wk =   0.2500000
        k(    5) = (  -0.5000000   0.0000000   0.0000000), wk =   0.2500000
        k(    6) = (   0.0000000  -0.5000000   0.0000000), wk =   0.2500000
        k(    7) = (  -0.5000000   0.0000000   0.5000000), wk =   0.2500000
        k(    8) = (  -0.5000000   0.5000000   0.0000000), wk =   0.2500000

     Dense  grid:   254127 G-vectors     FFT dimensions: (  80,  80,  80)

     Estimated max dynamical RAM per process >     223.18 MB

     Estimated total dynamical RAM >       6.79 GB

     Check: negative core charge=   -0.000025

     Initial potential from superposition of free atoms

     starting charge     435.9427, renormalised to     436.0000
     Starting wfcs are  376 randomized atomic wfcs
     Checking if some PAW data can be deallocated... 

     total cpu time spent up to now is        3.9 secs

     Self-consistent Calculation

     iteration #  1     ecut=    60.00 Ry     beta= 0.20
     Davidson diagonalization with overlap
     ethr =  1.00E-02,  avg # of iterations =  2.0

     total cpu time spent up to now is       11.3 secs

     total energy              =   -5059.76941271 Ry
     estimated scf accuracy    <      19.95011578 Ry

     iteration #  2     ecut=    60.00 Ry     beta= 0.20
     Davidson diagonalization with overlap
     ethr =  4.58E-03,  avg # of iterations =  1.0

     total cpu time spent up to now is       17.3 secs

     total energy              =   -5054.95856064 Ry
     estimated scf accuracy    <      11.35153010 Ry

     iteration #  3     ecut=    60.00 Ry     beta= 0.20
     Davidson diagonalization with overlap
     ethr =  2.60E-03,  avg # of iterations =  3.2

     total cpu time spent up to now is       25.9 secs

     total energy              =   -5057.68357229 Ry
     estimated scf accuracy    <       0.86567110 Ry

     iteration #  4     ecut=    60.00 Ry     beta= 0.20
     Davidson diagonalization with overlap
     ethr =  1.99E-04,  avg # of iterations =  4.8

     total cpu time spent up to now is       34.2 secs

     total energy              =   -5057.75780836 Ry
     estimated scf accuracy    <       0.41212808 Ry

     iteration #  5     ecut=    60.00 Ry     beta= 0.20
     Davidson diagonalization with overlap
     ethr =  9.45E-05,  avg # of iterations =  2.2

     total cpu time spent up to now is       41.2 secs

     total energy              =   -5057.73297885 Ry
     estimated scf accuracy    <       0.22330559 Ry

     iteration #  6     ecut=    60.00 Ry     beta= 0.20
     Davidson diagonalization with overlap
     ethr =  5.12E-05,  avg # of iterations =  2.0

     total cpu time spent up to now is       48.8 secs

     total energy              =   -5057.73123509 Ry
     estimated scf accuracy    <       0.08816151 Ry

     iteration #  7     ecut=    60.00 Ry     beta= 0.20
     Davidson diagonalization with overlap
     ethr =  2.02E-05,  avg # of iterations =  3.1

     total cpu time spent up to now is       56.3 secs

     total energy              =   -5057.73594625 Ry
     estimated scf accuracy    <       0.01458510 Ry

     iteration #  8     ecut=    60.00 Ry     beta= 0.20
     Davidson diagonalization with overlap
     c_bands:  2 eigenvalues not converged
     ethr =  3.35E-06,  avg # of iterations = 24.1

     total cpu time spent up to now is       79.9 secs

     total energy              =   -5057.73968781 Ry
     estimated scf accuracy    <       0.00406094 Ry

     iteration #  9     ecut=    60.00 Ry     beta= 0.20
     Davidson diagonalization with overlap
     c_bands:  3 eigenvalues not converged
     ethr =  9.31E-07,  avg # of iterations = 12.0

     total cpu time spent up to now is       90.6 secs

     total energy              =   -5057.73969376 Ry
     estimated scf accuracy    <       0.00152507 Ry

     iteration # 10     ecut=    60.00 Ry     beta= 0.20
     Davidson diagonalization with overlap
     ethr =  3.50E-07,  avg # of iterations =  7.8

     total cpu time spent up to now is       99.8 secs

     total energy              =   -5057.73972194 Ry
     estimated scf accuracy    <       0.00044706 Ry

     iteration # 11     ecut=    60.00 Ry     beta= 0.20
     Davidson diagonalization with overlap
     ethr =  1.03E-07,  avg # of iterations =  7.0

     total cpu time spent up to now is      110.3 secs

     total energy              =   -5057.73974212 Ry
     estimated scf accuracy    <       0.00026169 Ry

     iteration # 12     ecut=    60.00 Ry     beta= 0.20
     Davidson diagonalization with overlap
     ethr =  6.00E-08,  avg # of iterations =  2.0

     total cpu time spent up to now is      117.7 secs

     total energy              =   -5057.73977194 Ry
     estimated scf accuracy    <       0.00005207 Ry

     iteration # 13     ecut=    60.00 Ry     beta= 0.20
     Davidson diagonalization with overlap
     c_bands:  2 eigenvalues not converged
     ethr =  1.19E-08,  avg # of iterations =  8.2

     total cpu time spent up to now is      129.0 secs

     total energy              =   -5057.73977255 Ry
     estimated scf accuracy    <       0.00001868 Ry

     iteration # 14     ecut=    60.00 Ry     beta= 0.20
     Davidson diagonalization with overlap
     ethr =  4.28E-09,  avg # of iterations =  3.5

     total cpu time spent up to now is      137.2 secs

     total energy              =   -5057.73977298 Ry
     estimated scf accuracy    <       0.00000441 Ry

     iteration # 15     ecut=    60.00 Ry     beta= 0.20
     Davidson diagonalization with overlap
     ethr =  1.01E-09,  avg # of iterations =  5.6

     total cpu time spent up to now is      146.2 secs

     total energy              =   -5057.73977344 Ry
     estimated scf accuracy    <       0.00000309 Ry

     iteration # 16     ecut=    60.00 Ry     beta= 0.20
     Davidson diagonalization with overlap
     ethr =  7.08E-10,  avg # of iterations =  2.0

     total cpu time spent up to now is      152.9 secs

     total energy              =   -5057.73977325 Ry
     estimated scf accuracy    <       0.00000102 Ry

     iteration # 17     ecut=    60.00 Ry     beta= 0.20
     Davidson diagonalization with overlap
     ethr =  2.34E-10,  avg # of iterations =  4.6

     total cpu time spent up to now is      161.5 secs

     total energy              =   -5057.73977340 Ry
     estimated scf accuracy    <       0.00000015 Ry

     iteration # 18     ecut=    60.00 Ry     beta= 0.20
     Davidson diagonalization with overlap
     ethr =  3.46E-11,  avg # of iterations =  7.6

     total cpu time spent up to now is      173.1 secs

     total energy              =   -5057.73977341 Ry
     estimated scf accuracy    <       0.00000012 Ry

     iteration # 19     ecut=    60.00 Ry     beta= 0.20
     Davidson diagonalization with overlap
     ethr =  2.82E-11,  avg # of iterations =  3.0

     total cpu time spent up to now is      181.1 secs

     total energy              =   -5057.73977342 Ry
     estimated scf accuracy    <       0.00000004 Ry

     iteration # 20     ecut=    60.00 Ry     beta= 0.20
     Davidson diagonalization with overlap
     ethr =  8.84E-12,  avg # of iterations =  2.0

     total cpu time spent up to now is      187.8 secs

     total energy              =   -5057.73977342 Ry
     estimated scf accuracy    <       0.00000001 Ry

     iteration # 21     ecut=    60.00 Ry     beta= 0.20
     Davidson diagonalization with overlap
     ethr =  2.51E-12,  avg # of iterations =  4.0

     total cpu time spent up to now is      196.3 secs

     End of self-consistent calculation

          k = 0.0000 0.0000 0.0000 ( 31799 PWs)   bands (ev):

   -43.0433 -42.9332 -42.7841 -42.7630 -42.7383 -42.6933 -42.6700 -42.6137
   -42.5845 -42.5494 -42.5308 -42.5200 -42.5115 -42.4900 -42.4791 -42.4579
   -42.4513 -42.4296 -42.4028 -42.3556 -19.4271 -19.3695 -19.3496 -19.3292
   -19.3000 -19.2824 -19.2306 -19.2105 -19.1718 -19.1648 -19.1589 -19.1394
   -19.1297 -19.1125 -19.1082 -19.0992 -19.0909 -19.0727 -19.0623 -19.0542
   -19.0497 -19.0424 -19.0321 -19.0226 -19.0095 -18.9947 -18.9890 -18.9775
   -18.9598 -18.9391 -18.9232 -18.9022 -18.8964 -18.8836 -18.8673 -18.8532
   -18.8378 -18.8222 -18.8136 -18.7960 -18.7854 -18.7787 -18.7667 -18.7381
   -18.7254 -18.7226 -18.7142 -18.7051 -18.6923 -18.6881 -18.6807 -18.6674
   -18.6536 -18.6474 -18.6328 -18.6269 -18.6058 -18.5897 -18.5614 -18.5440
    -2.6286  -1.6110  -1.4581  -1.4039  -1.2910  -1.2165  -1.1075  -0.6878
    -0.5777  -0.5640  -0.5192  -0.4710  -0.4567  -0.3783  -0.3354  -0.3095
    -0.2582  -0.2073  -0.1448  -0.0601  -0.0403   0.0111   0.0516   0.0571
     0.1266   0.1482   0.2100   0.2370   0.3015   0.3797   0.4707   0.5230
     5.7385   6.3123   6.5679   6.8100   7.2718   7.5379   7.6034   7.6297
     7.7953   7.8269   7.8924   7.9655   7.9966   8.0170   8.0444   8.1083
     8.3042   8.3389   8.4296   8.4899   8.5279   8.5683   8.7048   8.7749
     8.8042   8.9095   8.9432   8.9911   9.0355   9.0691   9.1126   9.1608
     9.2282   9.2732   9.3770   9.4397   9.4826   9.5072   9.5352   9.6116
     9.6490   9.7131   9.7386   9.7735   9.7939   9.8153   9.8382   9.9042
     9.9507  10.0757  10.1150  10.1993  10.2191  10.2545  10.2662  10.3084
    10.4203  10.4940  10.5810  10.6543  10.6801  10.7267  10.7554  10.8104
    10.9249  10.9753  11.0271  11.0525  11.0732  11.1009  11.2519  11.3006
    11.3608  11.3720  11.4348  11.5492  11.6371  11.7957  11.8199  11.8321
    11.8499  11.8738  11.8863  11.9160  11.9795  12.0142  12.0582  12.0997
    12.1260  12.1533  12.2377  12.2618  12.3492  12.6786  12.7503  12.9001
    13.2128  13.2444  13.2625  13.7598  13.8821  13.9879  14.1178  14.2930
    14.4112  15.0791  15.2621  15.4000  15.9074  16.0361  16.0550  16.0947
    16.1167  16.1415  16.1653  16.1961  16.2581  16.2882  16.3140  16.3350
    16.3476  16.3765  16.4443  16.4631  16.5350  16.5637  16.6019  16.6369
    16.6502  16.6568  16.7038  16.7243  16.7288  16.7536  16.7847  16.8049
    16.8235  16.8617  16.8855  16.8969  16.9345  16.9407  16.9486  16.9725
    17.0022  17.0302  17.0509  17.0641  17.0868  17.1056

          k = 0.0000 0.0000-0.5000 ( 31768 PWs)   bands (ev):

   -43.0433 -42.9332 -42.7841 -42.7629 -42.7382 -42.6934 -42.6700 -42.6137
   -42.5841 -42.5502 -42.5306 -42.5224 -42.5108 -42.4895 -42.4756 -42.4576
   -42.4532 -42.4298 -42.4029 -42.3557 -19.4238 -19.3683 -19.3295 -19.3217
   -19.2970 -19.2732 -19.2339 -19.2089 -19.1930 -19.1854 -19.1513 -19.1441
   -19.1406 -19.1218 -19.1135 -19.0971 -19.0928 -19.0836 -19.0700 -19.0649
   -19.0573 -19.0456 -19.0336 -19.0228 -19.0188 -19.0019 -18.9749 -18.9654
   -18.9457 -18.9348 -18.9267 -18.9106 -18.8859 -18.8820 -18.8540 -18.8484
   -18.8307 -18.8091 -18.7952 -18.7896 -18.7748 -18.7677 -18.7492 -18.7396
   -18.7265 -18.7256 -18.7196 -18.7140 -18.7075 -18.6962 -18.6758 -18.6741
   -18.6570 -18.6515 -18.6428 -18.6282 -18.6133 -18.5855 -18.5618 -18.5438
    -2.2712  -2.2497  -1.2302  -1.2069  -1.0973  -1.0790  -1.0532  -0.9363
    -0.8965  -0.7086  -0.6350  -0.5913  -0.3760  -0.3043  -0.2777  -0.2608
    -0.1929  -0.1583  -0.1364  -0.0911  -0.0400  -0.0055   0.0321   0.0725
     0.1677   0.1831   0.2295   0.2695   0.2921   0.3096   0.4165   0.5067
     6.2554   6.4333   6.7438   6.9077   7.0420   7.1970   7.3537   7.4928
     7.6633   7.7717   7.9352   7.9411   8.0162   8.1385   8.1813   8.2358
     8.2776   8.3161   8.3465   8.4147   8.4730   8.5563   8.6040   8.6945
     8.7435   8.7868   8.8377   8.8542   8.9399   8.9903   9.0091   9.0802
     9.1273   9.1686   9.4335   9.4961   9.6599   9.7287   9.7826   9.8517
     9.8967   9.9027   9.9531   9.9563  10.0104  10.0494  10.1037  10.1516
    10.1870  10.1982  10.2204  10.2964  10.3276  10.3962  10.4435  10.4705
    10.5989  10.6320  10.7033  10.7364  10.7504  10.7821  10.8499  10.8723
    10.8986  10.9383  10.9883  11.0197  11.0405  11.0656  11.0871  11.1367
    11.1599  11.2402  11.2742  11.3036  11.3144  11.3445  11.4139  11.4632
    11.5125  11.5489  11.6266  11.7144  11.7263  11.7589  11.8014  11.8530
    11.9360  11.9682  12.0437  12.1354  12.6155  12.6602  12.6701  12.7102
    13.0367  13.3394  14.1654  14.2083  14.2977  14.4450  14.6460  14.7921
    14.8831  15.0425  15.0665  15.1627  15.1794  15.3844  15.5427  15.7907
    15.8464  15.9519  16.1135  16.1269  16.1572  16.1988  16.2674  16.3003
    16.3456  16.3855  16.4274  16.4339  16.4651  16.5153  16.5368  16.5376
    16.5952  16.6054  16.6427  16.6553  16.6637  16.7159  16.7503  16.7717
    16.7813  16.8201  16.8741  16.8934  16.9243  16.9439  16.9982  17.0229
    17.0682  17.0843  17.1403  17.1851  17.2033  17.2548

          k = 0.0000-0.5000-0.5000 ( 31736 PWs)   bands (ev):

   -43.0433 -42.9332 -42.7841 -42.7629 -42.7382 -42.6931 -42.6704 -42.6138
   -42.5843 -42.5501 -42.5299 -42.5230 -42.5110 -42.4889 -42.4757 -42.4579
   -42.4532 -42.4299 -42.4029 -42.3557 -19.4238 -19.3672 -19.3253 -19.3192
   -19.2963 -19.2729 -19.2291 -19.2163 -19.2142 -19.1655 -19.1560 -19.1492
   -19.1301 -19.1216 -19.1090 -19.1023 -19.0921 -19.0827 -19.0747 -19.0639
   -19.0533 -19.0399 -19.0311 -19.0215 -19.0172 -19.0067 -19.0002 -18.9636
   -18.9481 -18.9408 -18.9238 -18.9002 -18.8883 -18.8760 -18.8581 -18.8443
   -18.8190 -18.8157 -18.7987 -18.7853 -18.7750 -18.7698 -18.7474 -18.7394
   -18.7312 -18.7258 -18.7236 -18.7164 -18.7101 -18.6943 -18.6758 -18.6690
   -18.6627 -18.6486 -18.6377 -18.6280 -18.6145 -18.5833 -18.5620 -18.5441
    -2.0423  -2.0180  -1.7217  -1.7095  -1.0212  -0.9140  -0.8497  -0.7473
    -0.7204  -0.6727  -0.6234  -0.5586  -0.5470  -0.4594  -0.4002  -0.3132
    -0.2405  -0.2011  -0.1757  -0.0935   0.0146   0.0526   0.0670   0.1138
     0.1365   0.1956   0.2302   0.2631   0.3449   0.3782   0.4025   0.4220
     6.5774   6.6646   6.8186   6.9410   6.9704   7.1995   7.3060   7.4914
     7.5198   7.7801   7.8119   7.9219   7.9410   8.0246   8.1055   8.1591
     8.2417   8.2833   8.3295   8.3584   8.4219   8.4290   8.5407   8.6367
     8.7046   8.7759   8.8393   8.9066   8.9980   9.0766   9.1874   9.2414
     9.4585   9.5057   9.5563   9.6458   9.7372   9.7466   9.8232   9.9084
     9.9363   9.9560  10.0014  10.0508  10.0885  10.1296  10.1384  10.1585
    10.2089  10.2760  10.3400  10.3475  10.3775  10.4255  10.4766  10.5085
    10.5714  10.5856  10.6239  10.6950  10.7039  10.7345  10.7938  10.8204
    10.8318  10.8766  10.9127  10.9334  10.9956  11.0117  11.0181  11.0316
    11.0758  11.1070  11.1399  11.1674  11.2286  11.2722  11.3161  11.3387
    11.4096  11.4484  11.5077  11.6333  11.6821  11.7215  11.8551  11.8943
    11.9506  11.9939  12.0245  12.0486  12.0962  12.1190  12.3286  12.6360
    14.0473  14.2094  14.3216  14.4646  14.4787  14.5732  14.7567  14.8712
    14.9418  14.9632  15.0048  15.1577  15.2721  15.3377  15.4823  15.4967
    15.5519  15.6355  15.6495  15.7128  15.7872  15.8423  15.8638  15.9822
    16.1158  16.1719  16.2271  16.3342  16.3638  16.3996  16.4276  16.4664
    16.5374  16.5587  16.5654  16.6120  16.6521  16.7405  16.7474  16.8384
    16.8643  16.8917  16.9460  16.9862  17.0072  17.1029  17.1494  17.1960
    17.2137  17.2427  17.2615  17.2707  17.3015  17.3393

          k =-0.5000-0.5000-0.5000 ( 31816 PWs)   bands (ev):

   -43.0433 -42.9332 -42.7841 -42.7629 -42.7382 -42.6931 -42.6704 -42.6128
   -42.5865 -42.5499 -42.5299 -42.5215 -42.5113 -42.4889 -42.4757 -42.4582
   -42.4531 -42.4300 -42.4029 -42.3557 -19.4262 -19.3698 -19.3311 -19.3236
   -19.2952 -19.2747 -19.2207 -19.1974 -19.1903 -19.1752 -19.1588 -19.1511
   -19.1347 -19.1157 -19.1060 -19.0980 -19.0902 -19.0850 -19.0723 -19.0617
   -19.0582 -19.0511 -19.0300 -19.0261 -19.0159 -19.0052 -19.0001 -18.9802
   -18.9615 -18.9496 -18.9209 -18.9104 -18.8883 -18.8654 -18.8530 -18.8389
   -18.8194 -18.8007 -18.7931 -18.7898 -18.7763 -18.7689 -18.7609 -18.7433
   -18.7427 -18.7253 -18.7190 -18.7160 -18.7043 -18.6984 -18.6698 -18.6666
   -18.6595 -18.6480 -18.6366 -18.6305 -18.6112 -18.5845 -18.5615 -18.5437
    -1.8884  -1.7602  -1.6098  -1.5016  -1.4614  -1.3064  -1.2460  -1.1968
    -0.5409  -0.4898  -0.4560  -0.4450  -0.3979  -0.3696  -0.3399  -0.3214
    -0.2470  -0.1596  -0.1313  -0.0767   0.0022   0.0425   0.0753   0.1164
     0.1266   0.1746   0.1995   0.2841   0.3141   0.3240   0.3565   0.4523
     6.7602   6.8615   6.9172   7.0473   7.1566   7.2079   7.3764   7.5204
     7.5340   7.6586   7.6925   7.8626   7.9049   7.9279   8.0199   8.0892
     8.1623   8.2734   8.3434   8.4133   8.5491   8.5626   8.5935   8.6515
     8.9330   9.0115   9.0486   9.1488   9.1804   9.3122   9.3204   9.3454
     9.4583   9.4727   9.5306   9.5613   9.6020   9.6206   9.6598   9.7164
     9.7317   9.7684   9.7839   9.8302   9.8584   9.9097   9.9531   9.9737
    10.0087  10.0463  10.0882  10.1285  10.1922  10.2438  10.2718  10.3603
    10.4875  10.5377  10.5738  10.6126  10.6369  10.6669  10.7137  10.7535
    10.7799  10.8054  10.8558  10.9081  10.9155  10.9882  11.0535  11.1090
    11.1645  11.1903  11.2777  11.3456  11.3763  11.4197  11.5158  11.5199
    11.5756  11.6433  11.6993  11.7460  11.7810  11.8362  11.9067  11.9161
    11.9584  12.0424  12.0825  12.1402  12.1885  12.2821  12.4468  12.5541
    14.3954  14.4640  14.5119  14.5655  14.5848  14.6310  14.7634  14.9056
    14.9124  15.0189  15.0667  15.1073  15.1691  15.1911  15.3354  15.3912
    15.4271  15.4563  15.5317  15.5604  15.5706  15.6282  15.7286  15.8385
    15.8766  15.9166  15.9924  16.0633  16.1274  16.1735  16.2927  16.2968
    16.3713  16.4251  16.4292  16.4759  16.4961  16.7371  16.7676  16.9686
    17.0415  17.0961  17.1317  17.1975  17.2137  17.2417  17.2839  17.3017
    17.3061  17.3423  17.3983  17.4017  17.4120  17.4263

          k =-0.5000 0.0000 0.0000 ( 31768 PWs)   bands (ev):

   -43.0433 -42.9332 -42.7841 -42.7629 -42.7383 -42.6933 -42.6700 -42.6128
   -42.5865 -42.5490 -42.5308 -42.5189 -42.5115 -42.4901 -42.4787 -42.4585
   -42.4514 -42.4295 -42.4029 -42.3556 -19.4238 -19.3662 -19.3327 -19.3198
   -19.2971 -19.2800 -19.2451 -19.2168 -19.1891 -19.1767 -19.1675 -19.1468
   -19.1311 -19.1097 -19.1069 -19.1026 -19.0813 -19.0727 -19.0639 -19.0553
   -19.0505 -19.0434 -19.0376 -19.0261 -19.0166 -19.0004 -18.9860 -18.9767
   -18.9542 -18.9336 -18.9245 -18.9063 -18.9018 -18.8742 -18.8505 -18.8351
   -18.8198 -18.8128 -18.8082 -18.7931 -18.7841 -18.7800 -18.7585 -18.7524
   -18.7427 -18.7180 -18.7064 -18.7036 -18.7007 -18.6917 -18.6860 -18.6680
   -18.6560 -18.6497 -18.6337 -18.6274 -18.6112 -18.5892 -18.5619 -18.5438
    -2.3390  -2.1730  -1.2573  -1.1305  -1.1186  -1.0661  -1.0417  -0.9410
    -0.8666  -0.7450  -0.7111  -0.5548  -0.4828  -0.3125  -0.2345  -0.2300
    -0.2039  -0.1784  -0.1413  -0.1188  -0.0827  -0.0195  -0.0159   0.0835
     0.1267   0.1954   0.2353   0.2696   0.3017   0.4149   0.4874   0.5550
     6.1177   6.5978   6.8259   6.9558   7.1600   7.4170   7.5330   7.6215
     7.6847   7.8192   7.8505   7.8910   7.9145   7.9672   8.0335   8.1844
     8.2283   8.3100   8.3571   8.4046   8.4993   8.5161   8.5603   8.5826
     8.6706   8.7110   8.7304   8.8514   8.8931   8.9536   8.9999   9.1186
     9.1237   9.2985   9.4455   9.5175   9.6189   9.7003   9.7360   9.7577
     9.8102   9.8320   9.8476   9.8916   9.9237   9.9559  10.0225  10.0708
    10.1556  10.1675  10.1925  10.2183  10.2399  10.3680  10.4206  10.4768
    10.5230  10.5639  10.6295  10.7157  10.7469  10.8188  10.8342  10.8638
    10.9078  10.9329  10.9873  11.0045  11.0541  11.1056  11.1586  11.2055
    11.2227  11.2747  11.3204  11.3379  11.3799  11.4098  11.4935  11.5382
    11.6414  11.6828  11.7435  11.8631  11.8704  11.8895  11.9160  11.9237
    11.9685  12.0321  12.0685  12.3005  12.6210  12.6398  12.7054  12.7440
    12.7824  13.6458  13.9204  13.9995  14.4256  14.5925  14.6640  14.7243
    14.7715  14.9126  14.9985  15.2671  15.2786  15.5648  15.7442  15.9158
    15.9733  16.0418  16.0658  16.1297  16.1912  16.2448  16.2581  16.2661
    16.3197  16.3407  16.3844  16.4077  16.4271  16.4839  16.5001  16.5760
    16.6009  16.6176  16.6279  16.6717  16.6845  16.7330  16.7488  16.7827
    16.8046  16.8476  16.8965  16.9284  16.9369  16.9630  16.9901  17.0076
    17.0353  17.0440  17.1190  17.1652  17.2156  17.2467

          k = 0.0000-0.5000 0.0000 ( 31768 PWs)   bands (ev):

   -43.0433 -42.9332 -42.7841 -42.7630 -42.7382 -42.6932 -42.6704 -42.6138
   -42.5846 -42.5494 -42.5301 -42.5205 -42.5117 -42.4894 -42.4791 -42.4580
   -42.4514 -42.4296 -42.4029 -42.3556 -19.4264 -19.3672 -19.3373 -19.3257
   -19.3050 -19.2871 -19.2157 -19.1968 -19.1834 -19.1672 -19.1513 -19.1332
   -19.1320 -19.1186 -19.1105 -19.1073 -19.1039 -19.0898 -19.0801 -19.0694
   -19.0555 -19.0484 -19.0377 -19.0266 -18.9997 -18.9982 -18.9885 -18.9629
   -18.9541 -18.9192 -18.9090 -18.9012 -18.8971 -18.8876 -18.8609 -18.8474
   -18.8350 -18.8149 -18.8133 -18.7927 -18.7879 -18.7836 -18.7640 -18.7276
   -18.7236 -18.7224 -18.7135 -18.7067 -18.6949 -18.6938 -18.6875 -18.6657
   -18.6566 -18.6476 -18.6361 -18.6269 -18.6070 -18.5922 -18.5622 -18.5441
    -2.3724  -2.0796  -1.4576  -1.2944  -1.0750  -0.9823  -0.9555  -0.8800
    -0.8059  -0.6833  -0.6585  -0.5834  -0.5195  -0.3389  -0.2505  -0.2208
    -0.1986  -0.1836  -0.1579  -0.1077  -0.0689  -0.0183   0.0490   0.1187
     0.1484   0.1646   0.2237   0.2846   0.3268   0.3661   0.4350   0.4611
     6.2209   6.5212   6.6849   6.9241   7.1140   7.1879   7.4296   7.5322
     7.5824   7.7190   7.7725   7.8288   7.9422   8.0240   8.1010   8.1956
     8.3244   8.3312   8.4181   8.4625   8.5086   8.6129   8.6398   8.7395
     8.7720   8.8168   8.8271   8.8686   8.9614   9.0162   9.0855   9.1052
     9.2579   9.3143   9.4611   9.5575   9.6620   9.6777   9.7206   9.7468
     9.7848   9.8203   9.8426   9.9146   9.9586  10.0263  10.0699  10.1480
    10.1663  10.1971  10.2811  10.3544  10.3916  10.5068  10.5501  10.5947
    10.6113  10.6608  10.6893  10.7179  10.7364  10.8002  10.8382  10.8742
    10.9090  10.9187  10.9706  11.0037  11.0499  11.0847  11.0910  11.1544
    11.1783  11.2331  11.2531  11.2714  11.2872  11.3417  11.3800  11.4607
    11.5221  11.5687  11.5763  11.6313  11.6699  11.7767  11.7877  11.8579
    11.9267  11.9729  12.0513  12.1365  12.6103  12.6794  12.7201  12.7346
    12.7616  13.6907  13.9186  13.9709  14.5495  14.6701  14.7195  14.7337
    14.8381  15.0274  15.0782  15.1968  15.2780  15.4339  15.4833  15.7025
    15.8326  15.9755  16.0673  16.0934  16.1377  16.1472  16.1613  16.2313
    16.2489  16.2784  16.3494  16.3783  16.3971  16.4610  16.4921  16.5256
    16.5538  16.5640  16.6039  16.7105  16.7451  16.7625  16.8159  16.8390
    16.8473  16.8918  16.9350  16.9780  16.9947  17.0088  17.0271  17.0367
    17.1163  17.1404  17.1545  17.1745  17.2058  17.2441

          k =-0.5000 0.0000 0.5000 ( 31736 PWs)   bands (ev):

   -43.0433 -42.9332 -42.7841 -42.7629 -42.7383 -42.6934 -42.6700 -42.6127
   -42.5863 -42.5499 -42.5306 -42.5210 -42.5110 -42.4895 -42.4757 -42.4580
   -42.4531 -42.4299 -42.4029 -42.3557 -19.4264 -19.3661 -19.3333 -19.3271
   -19.2965 -19.2763 -19.2183 -19.1912 -19.1839 -19.1732 -19.1632 -19.1424
   -19.1401 -19.1281 -19.1102 -19.0995 -19.0985 -19.0920 -19.0725 -19.0665
   -19.0551 -19.0501 -19.0402 -19.0283 -19.0134 -19.0051 -18.9776 -18.9756
   -18.9430 -18.9388 -18.9289 -18.9098 -18.8962 -18.8654 -18.8535 -18.8438
   -18.8243 -18.8031 -18.7884 -18.7864 -18.7776 -18.7674 -18.7548 -18.7455
   -18.7363 -18.7247 -18.7208 -18.7133 -18.7074 -18.6985 -18.6725 -18.6676
   -18.6576 -18.6515 -18.6413 -18.6296 -18.6102 -18.5873 -18.5620 -18.5432
    -2.0735  -1.9624  -1.8318  -1.6516  -0.9313  -0.8611  -0.7739  -0.7669
    -0.7027  -0.6673  -0.6291  -0.5914  -0.5539  -0.5000  -0.4506  -0.3799
    -0.3467  -0.2482  -0.1457  -0.1005  -0.0583  -0.0076   0.0804   0.1289
     0.1566   0.1978   0.2319   0.2493   0.3596   0.4444   0.4696   0.5290
     6.3476   6.6114   6.9885   7.0984   7.3055   7.3543   7.4453   7.5855
     7.6184   7.7111   7.8039   7.8809   7.9340   8.0332   8.0647   8.0974
     8.2421   8.2513   8.3294   8.3602   8.4233   8.4694   8.5634   8.5855
     8.5999   8.6643   8.6889   8.8201   8.9410   9.0356   9.0824   9.1515
     9.2625   9.3557   9.5271   9.6332   9.6395   9.6791   9.7132   9.8526
     9.8767   9.8925   9.9535   9.9958  10.0272  10.0425  10.0621  10.1252
    10.1330  10.1637  10.2340  10.3224  10.3332  10.4034  10.4829  10.5304
    10.5611  10.5762  10.6091  10.6523  10.7302  10.7362  10.7693  10.8305
    10.8493  10.8841  10.8971  10.9491  11.0195  11.0382  11.0522  11.1124
    11.1359  11.1778  11.1953  11.2264  11.3019  11.3540  11.3796  11.5616
    11.6160  11.6388  11.6561  11.6976  11.7233  11.7949  11.9206  11.9601
    11.9838  12.0315  12.1135  12.1479  12.1658  12.2594  12.3253  12.5816
    13.9851  14.1542  14.2220  14.3520  14.4843  14.5975  14.6060  14.7366
    14.9907  15.0383  15.1564  15.1982  15.2610  15.3951  15.4199  15.5043
    15.5712  15.6597  15.7222  15.7559  15.8966  15.9349  15.9473  16.1019
    16.1959  16.2242  16.2668  16.2901  16.3532  16.3839  16.4458  16.4788
    16.5043  16.5726  16.5878  16.6180  16.6764  16.7303  16.7759  16.7909
    16.8172  16.8683  16.9427  16.9691  17.0985  17.1353  17.1659  17.1791
    17.2176  17.2336  17.2809  17.3034  17.3182  17.3353

          k =-0.5000 0.5000 0.0000 ( 31736 PWs)   bands (ev):

   -43.0433 -42.9332 -42.7841 -42.7629 -42.7382 -42.6932 -42.6704 -42.6129
   -42.5867 -42.5490 -42.5301 -42.5194 -42.5117 -42.4894 -42.4787 -42.4586
   -42.4515 -42.4296 -42.4029 -42.3556 -19.4235 -19.3685 -19.3228 -19.3194
   -19.2963 -19.2750 -19.2302 -19.2131 -19.1913 -19.1806 -19.1630 -19.1465
   -19.1302 -19.1272 -19.1152 -19.1041 -19.0866 -19.0848 -19.0812 -19.0670
   -19.0606 -19.0434 -19.0360 -19.0213 -19.0121 -19.0006 -18.9818 -18.9694
   -18.9620 -18.9225 -18.9072 -18.9043 -18.8981 -18.8738 -18.8444 -18.8328
   -18.8197 -18.8085 -18.8053 -18.7914 -18.7901 -18.7805 -18.7599 -18.7420
   -18.7399 -18.7198 -18.7087 -18.7057 -18.7015 -18.6954 -18.6893 -18.6669
   -18.6557 -18.6519 -18.6371 -18.6264 -18.6133 -18.5907 -18.5617 -18.5434
    -2.1091  -1.9446  -1.7951  -1.6242  -0.9551  -0.9123  -0.8197  -0.7619
    -0.6705  -0.6516  -0.6235  -0.6163  -0.5711  -0.5451  -0.4408  -0.3420
    -0.2770  -0.2119  -0.1810  -0.1463  -0.0842  -0.0307   0.0130   0.1624
     0.2327   0.2513   0.2601   0.3333   0.3571   0.3730   0.4552   0.4932
     6.4158   6.7220   6.7800   7.0305   7.2761   7.4372   7.5030   7.6440
     7.7170   7.8045   7.8207   7.8458   7.8868   7.9710   7.9976   8.0598
     8.1220   8.2095   8.2861   8.3128   8.3612   8.4408   8.5024   8.5406
     8.5875   8.6171   8.6519   8.8652   9.0287   9.0654   9.1222   9.1910
     9.3846   9.4410   9.5255   9.5990   9.6296   9.6884   9.7590   9.8280
     9.8829   9.9147   9.9727  10.0116  10.0387  10.1091  10.1303  10.1511
    10.1847  10.2254  10.2915  10.3319  10.3626  10.3837  10.4167  10.5243
    10.5492  10.5962  10.6238  10.6410  10.6880  10.7287  10.7834  10.8127
    10.8503  10.8846  10.9567  10.9721  11.0251  11.0514  11.0891  11.1241
    11.1581  11.1893  11.2291  11.2425  11.2967  11.3596  11.3665  11.4435
    11.5226  11.5799  11.6542  11.7221  11.7827  11.8654  11.8896  11.9193
    11.9546  11.9822  12.0304  12.0579  12.1153  12.2256  12.2872  12.5637
    13.9058  14.0760  14.2330  14.4403  14.5409  14.7005  14.7631  14.8422
    14.8549  14.9063  15.1022  15.1876  15.2606  15.3978  15.4220  15.5214
    15.5327  15.6055  15.6494  15.8047  15.9230  15.9988  16.0999  16.1368
    16.2100  16.2790  16.2843  16.3072  16.3664  16.4046  16.4531  16.5104
    16.5848  16.6242  16.6436  16.6751  16.6999  16.7357  16.7543  16.8154
    16.8392  16.8595  16.8971  16.9520  16.9917  17.0078  17.0273  17.0679
    17.1669  17.1990  17.2582  17.2913  17.3298  17.3441

     the Fermi energy is    15.0422 ev

!    total energy              =   -5057.73977342 Ry
     total all-electron energy =    -43491.472878 Ry
     estimated scf accuracy    <          4.8E-09 Ry
     smearing contrib. (-TS)   =      -0.00374816 Ry
     internal energy E=F+TS    =   -5057.73602526 Ry

     The total energy is F=E-TS. E is the sum of the following terms:
     one-electron contribution =    -960.67179646 Ry
     hartree contribution      =     752.88393161 Ry
     xc contribution           =    -591.18843468 Ry
     ewald contribution        =   -2281.13812766 Ry
     one-center paw contrib.   =   -1977.62159809 Ry

     convergence has been achieved in  21 iterations

     Forces acting on atoms (cartesian axes, Ry/au):

     atom    1 type  1   force =    -0.01344009   -0.00425373   -0.01354355
     atom    2 type  2   force =    -0.00046071   -0.01928414   -0.01686715
     atom    3 type  3   force =    -0.01261688   -0.00086549   -0.00286469
     atom    4 type  2   force =    -0.00385535   -0.00369024   -0.00520661
     atom    5 type  3   force =    -0.00205690   -0.01570911    0.00047008
     atom    6 type  2   force =    -0.01768735   -0.02320656   -0.00096513
     atom    7 type  3   force =    -0.00300610   -0.00089195   -0.01439400
     atom    8 type  2   force =    -0.01685237    0.00054891   -0.01625797
     atom    9 type  3   force =    -0.01719037   -0.01322255    0.00196592
     atom   10 type  2   force =    -0.00550912   -0.01528692   -0.00018126
     atom   11 type  3   force =    -0.01258405    0.00060617    0.01249977
     atom   12 type  2   force =    -0.00441231   -0.00019473    0.01893048
     atom   13 type  1   force =     0.00185881   -0.01533030    0.01386794
     atom   14 type  2   force =    -0.01448619   -0.01761429    0.02054343
     atom   15 type  3   force =    -0.00084231   -0.00225452    0.00172868
     atom   16 type  2   force =    -0.02023165   -0.00216756    0.00325924
     atom   17 type  1   force =    -0.01672562   -0.00298586   -0.00941556
     atom   18 type  2   force =     0.00163728    0.00541274   -0.02127513
     atom   19 type  3   force =    -0.01171888    0.02190801   -0.00153446
     atom   20 type  2   force =    -0.00114856    0.01848121   -0.00162978
     atom   21 type  3   force =    -0.00032467   -0.00026302    0.00126756
     atom   22 type  2   force =    -0.01804871    0.00665407    0.00098665
     atom   23 type  3   force =    -0.00130789    0.01203459   -0.01495226
     atom   24 type  2   force =    -0.01758202    0.01068959   -0.01615885
     atom   25 type  1   force =    -0.01288053    0.00140679    0.00056792
     atom   26 type  2   force =     0.00131737    0.00018403    0.00443152
     atom   27 type  1   force =    -0.00938965    0.01093563    0.00904050
     atom   28 type  2   force =     0.00081099    0.01957822    0.01441340
     atom   29 type  3   force =    -0.00224018   -0.00082116    0.02077592
     atom   30 type  2   force =    -0.02255509    0.00294021    0.01118743
     atom   31 type  1   force =    -0.00104058    0.01210974    0.00108457
     atom   32 type  2   force =    -0.01197691    0.01371914   -0.00118981
     atom   33 type  3   force =     0.00255979   -0.01061957   -0.01300602
     atom   34 type  2   force =     0.01889495   -0.01618919   -0.01515780
     atom   35 type  3   force =     0.00219760   -0.00183503   -0.00118167
     atom   36 type  2   force =     0.01878171    0.00047101   -0.00434628
     atom   37 type  1   force =     0.01621859   -0.01085615    0.00212782
     atom   38 type  2   force =    -0.00023230   -0.01546503   -0.00469671
     atom   39 type  3   force =     0.01103269    0.00188253   -0.01331696
     atom   40 type  2   force =     0.00178187   -0.00575322   -0.02104132
     atom   41 type  3   force =     0.00014945   -0.01061789   -0.00031950
     atom   42 type  2   force =     0.02210988   -0.02431126   -0.00155390
     atom   43 type  3   force =     0.00164052    0.00001176    0.01477816
     atom   44 type  2   force =     0.01790977    0.00029694    0.01713278
     atom   45 type  1   force =     0.00963163   -0.00722407    0.00985960
     atom   46 type  2   force =    -0.00038613   -0.01836128    0.01871320
     atom   47 type  3   force =     0.01396769    0.00171718    0.00145326
     atom   48 type  2   force =     0.00372215   -0.00526970    0.00601883
     atom   49 type  3   force =     0.00420080   -0.00129340   -0.01789004
     atom   50 type  2   force =     0.02161840    0.00247985   -0.01053791
     atom   51 type  1   force =     0.00072890    0.01147765   -0.00154052
     atom   52 type  2   force =     0.01148069    0.01354882   -0.00003019
     atom   53 type  1   force =     0.01566715    0.00050263   -0.00024601
     atom   54 type  2   force =    -0.00105422    0.00043537   -0.00406912
     atom   55 type  1   force =     0.00982512    0.01002095   -0.00888051
     atom   56 type  2   force =    -0.00334595    0.01775519   -0.01359496
     atom   57 type  3   force =     0.00106375    0.00071301   -0.00047825
     atom   58 type  2   force =     0.01844092    0.00561595   -0.00027746
     atom   59 type  3   force =     0.00027878    0.01103928    0.01295023
     atom   60 type  2   force =     0.01787799    0.01316521    0.01396625
     atom   61 type  1   force =     0.01772102   -0.00367611    0.00890300
     atom   62 type  2   force =    -0.00119710    0.00392433    0.02198401
     atom   63 type  3   force =     0.01033316    0.01969264    0.00053101
     atom   64 type  2   force =     0.00292732    0.01755467    0.00316217

     Total force =     0.154745     Total SCF correction =     0.000224


     Computing stress (Cartesian axis) and pressure

          total   stress  (Ry/bohr**3)                   (kbar)     P=      -26.66
  -0.00014691  -0.00002476   0.00006560          -21.61       -3.64        9.65
  -0.00002476  -0.00018935  -0.00003013           -3.64      -27.85       -4.43
   0.00006560  -0.00003013  -0.00020736            9.65       -4.43      -30.50

 
     init_run     :      3.34s CPU      3.55s WALL (       1 calls)
     electrons    :    188.61s CPU    192.37s WALL (       1 calls)
     forces       :      1.93s CPU      1.97s WALL (       1 calls)
     stress       :     18.84s CPU     19.00s WALL (       1 calls)

     Called by init_run:
     wfcinit      :      2.89s CPU      3.02s WALL (       1 calls)
     potinit      :      0.21s CPU      0.22s WALL (       1 calls)
     hinit0       :      0.12s CPU      0.15s WALL (       1 calls)

     Called by electrons:
     c_bands      :    165.41s CPU    168.19s WALL (      21 calls)
     sum_band     :     16.68s CPU     17.20s WALL (      21 calls)
     v_of_rho     :      0.78s CPU      0.80s WALL (      22 calls)
     newd         :      1.36s CPU      1.65s WALL (      22 calls)
     PAW_pot      :      3.53s CPU      3.60s WALL (      22 calls)
     mix_rho      :      1.05s CPU      1.11s WALL (      21 calls)

     Called by c_bands:
     init_us_2    :      1.83s CPU      1.86s WALL (      90 calls)
     init_us_2:cp :      1.83s CPU      1.86s WALL (      90 calls)
     cegterg      :    138.84s CPU    141.48s WALL (      42 calls)

     Called by *egterg:
     cdiaghg      :     16.00s CPU     16.29s WALL (     265 calls)
     h_psi        :     66.15s CPU     67.18s WALL (     267 calls)
     s_psi        :     17.58s CPU     17.72s WALL (     267 calls)
     g_psi        :      0.33s CPU      0.33s WALL (     223 calls)

     Called by h_psi:
     h_psi:calbec :     17.21s CPU     17.36s WALL (     267 calls)
     vloc_psi     :     30.65s CPU     31.15s WALL (     267 calls)
     add_vuspsi   :     17.65s CPU     17.82s WALL (     267 calls)

     General routines
     calbec       :     25.36s CPU     25.57s WALL (     319 calls)
     fft          :      0.42s CPU      0.46s WALL (     267 calls)
     ffts         :      0.53s CPU      0.54s WALL (     439 calls)
     fftw         :     31.27s CPU     31.78s WALL (   66100 calls)
 
     Parallel routines
 
     PWSCF        :   3m32.96s CPU   3m37.38s WALL

 
   This run was terminated on:  17:17:29  11May2026            

=------------------------------------------------------------------------------=
   JOB DONE.
=------------------------------------------------------------------------------=
