
     Program PWSCF v.7.1 starts on 11May2026 at 17:11: 0 

     This program is part of the open-source Quantum ESPRESSO suite
     for quantum simulation of materials; please cite
         "P. Giannozzi et al., J. Phys.:Condens. Matter 21 395502 (2009);
         "P. Giannozzi et al., J. Phys.:Condens. Matter 29 465901 (2017);
         "P. Giannozzi et al., J. Chem. Phys. 152 154105 (2020);
          URL http://www.quantum-espresso.org", 
     in publications or presentations arising from this work. More details at
     http://www.quantum-espresso.org/quote

     Parallel version (MPI & OpenMP), running on      32 processor cores
     Number of MPI processes:                32
     Threads/MPI process:                     1

     MPI processes distributed on     1 nodes
     91388 MiB available memory on the printing compute node when the environment starts
 
     Reading input from TiAlN_x0375finalrelaxedresult8268975.in

     Current dimensions of program PWSCF are:
     Max number of different atomic species (ntypx) = 10
     Max number of k-points (npk) = 150000
     Max angular momentum in pseudopotentials (lmaxx) =  4
     file Al.pbe-n-kjpaw_psl.1.0.0.UPF: wavefunction(s)  3S 3P renormalized
     file N.pbe-n-kjpaw_psl.1.0.0.UPF: wavefunction(s)  2S renormalized
     file Ti.pbe-spn-kjpaw_psl.1.0.0.UPF: wavefunction(s)  3S 3P 3D renormalized
 
     K-points division:     npool     =       4
     R & G space division:  proc/nbgrp/npool/nimage =       8
     Subspace diagonalization in iterative solution of the eigenvalue problem:
     one sub-group per band group will be used
     scalapack distributed-memory algorithm (size of sub-group:  2*  2 procs)

 
     Parallelization info
     --------------------
     sticks:   dense  smooth     PW     G-vecs:    dense   smooth      PW
     Min         583     583    159                29967    29967    4283
     Max         584     584    161                29970    29970    4284
     Sum        4669    4669   1281               239745   239745   34265
 
     Using Slab Decomposition
 


     bravais-lattice index     =            0
     lattice parameter (alat)  =      15.6261  a.u.
     unit-cell volume          =    3815.5016 (a.u.)^3
     number of atoms/cell      =           64
     number of atomic types    =            3
     number of electrons       =       436.00
     number of Kohn-Sham states=          262
     kinetic-energy cutoff     =      60.0000  Ry
     charge density cutoff     =     240.0000  Ry
     scf convergence threshold =      1.0E-08
     mixing beta               =       0.2000
     number of iterations used =            8  local-TF  mixing
     Exchange-correlation= SLA  PW   PBX  PBC
                           (   1   4   3   4   0   0   0)

     celldm(1)=  15.626098  celldm(2)=   0.000000  celldm(3)=   0.000000
     celldm(4)=   0.000000  celldm(5)=   0.000000  celldm(6)=   0.000000

     crystal axes: (cart. coord. in units of alat)
               a(1) = (   1.000000   0.000000   0.000000 )  
               a(2) = (   0.000000   1.000000   0.000000 )  
               a(3) = (   0.000000   0.000000   1.000000 )  

     reciprocal axes: (cart. coord. in units 2 pi/alat)
               b(1) = (  1.000000  0.000000  0.000000 )  
               b(2) = (  0.000000  1.000000  0.000000 )  
               b(3) = (  0.000000  0.000000  1.000000 )  


     PseudoPot. # 1 for Al read from file:
     ../../../pseudo/Al.pbe-n-kjpaw_psl.1.0.0.UPF
     MD5 check sum: 502b6b27b9c6270cab5dd1084b96fa6d
     Pseudo is Projector augmented-wave + core cor, Zval =  3.0
     Generated using &quot;atomic&quot; code by A. Dal Corso  v.6.3
     Shape of augmentation charge: PSQ
     Using radial grid of 1135 points,  6 beta functions with: 
                l(1) =   0
                l(2) =   0
                l(3) =   1
                l(4) =   1
                l(5) =   2
                l(6) =   2
     Q(r) pseudized with 0 coefficients 


     PseudoPot. # 2 for N  read from file:
     ../../../pseudo/N.pbe-n-kjpaw_psl.1.0.0.UPF
     MD5 check sum: 14c48229446f9f2d411169a3abcbc3fa
     Pseudo is Projector augmented-wave + core cor, Zval =  5.0
     Generated using &quot;atomic&quot; code by A. Dal Corso  v.6.3
     Shape of augmentation charge: PSQ
     Using radial grid of 1085 points,  4 beta functions with: 
                l(1) =   0
                l(2) =   0
                l(3) =   1
                l(4) =   1
     Q(r) pseudized with 0 coefficients 


     PseudoPot. # 3 for Ti read from file:
     ../../../pseudo/Ti.pbe-spn-kjpaw_psl.1.0.0.UPF
     MD5 check sum: 01f69b0d8ba4438b2e03ac6ea4af1c0b
     Pseudo is Projector augmented-wave + core cor, Zval = 12.0
     Generated using &quot;atomic&quot; code by A. Dal Corso  v.6.2.2
     Shape of augmentation charge: PSQ
     Using radial grid of 1177 points,  6 beta functions with: 
                l(1) =   0
                l(2) =   0
                l(3) =   1
                l(4) =   1
                l(5) =   2
                l(6) =   2
     Q(r) pseudized with 0 coefficients 


     atomic species   valence    mass     pseudopotential
        Al             3.00    26.98200     Al( 1.00)
        N              5.00    14.00700     N ( 1.00)
        Ti            12.00    47.86700     Ti( 1.00)

     No symmetry found



   Cartesian axes

     site n.     atom                  positions (alat units)
         1           Al  tau(   1) = (  -0.0014709  -0.0021242  -0.0043024  )
         2           N   tau(   2) = (   0.2410432  -0.0022431  -0.0090051  )
         3           Ti  tau(   3) = (   0.0023386   0.2469102   0.2580464  )
         4           N   tau(   4) = (   0.2519185   0.2521867   0.2531200  )
         5           Ti  tau(   5) = (   0.2512478   0.0020030   0.2532202  )
         6           N   tau(   6) = (  -0.0112100  -0.0014168   0.2398262  )
         7           Ti  tau(   7) = (   0.2561502   0.2559241   0.0018508  )
         8           N   tau(   8) = (  -0.0017661   0.2549468  -0.0014178  )
         9           Ti  tau(   9) = (  -0.0007835   0.0043222   0.4980114  )
        10           N   tau(  10) = (   0.2510586  -0.0076455   0.5145602  )
        11           Ti  tau(  11) = (   0.0039454   0.2527052   0.7521796  )
        12           N   tau(  12) = (   0.2511534   0.2395255   0.7569659  )
        13           Al  tau(  13) = (   0.2468252  -0.0039796   0.7571722  )
        14           N   tau(  14) = (  -0.0046499  -0.0064968   0.7631493  )
        15           Ti  tau(  15) = (   0.2531196   0.2533105   0.5038057  )
        16           N   tau(  16) = (   0.0012060   0.2657465   0.5059403  )
        17           Al  tau(  17) = (  -0.0050997   0.5068462  -0.0001165  )
        18           N   tau(  18) = (   0.2376958   0.5060804  -0.0004768  )
        19           Ti  tau(  19) = (   0.0081429   0.7638916   0.2560483  )
        20           N   tau(  20) = (   0.2621285   0.7583137   0.2602387  )
        21           Ti  tau(  21) = (   0.2542191   0.5023784   0.2488715  )
        22           N   tau(  22) = (  -0.0093041   0.5074463   0.2509126  )
        23           Ti  tau(  23) = (   0.2577580   0.7534257   0.0011741  )
        24           N   tau(  24) = (  -0.0051379   0.7556144  -0.0041165  )
        25           Al  tau(  25) = (  -0.0012598   0.5097249   0.5059609  )
        26           N   tau(  26) = (   0.2433025   0.5124478   0.5062220  )
        27           Al  tau(  27) = (   0.0003771   0.7569900   0.7591160  )
        28           N   tau(  28) = (   0.2453491   0.7647525   0.7521679  )
        29           Ti  tau(  29) = (   0.2606019   0.5034002   0.7611537  )
        30           N   tau(  30) = (  -0.0073970   0.5113950   0.7589360  )
        31           Al  tau(  31) = (   0.2522964   0.7569838   0.5070858  )
        32           N   tau(  32) = (   0.0055044   0.7514112   0.5107463  )
        33           Ti  tau(  33) = (   0.4977391   0.0041524   0.0006220  )
        34           N   tau(  34) = (   0.7642015  -0.0058057  -0.0013658  )
        35           Ti  tau(  35) = (   0.5017967   0.2532767   0.2547581  )
        36           N   tau(  36) = (   0.7565264   0.2513642   0.2509219  )
        37           Al  tau(  37) = (   0.7567113  -0.0040287   0.2445565  )
        38           N   tau(  38) = (   0.5159757  -0.0076199   0.2513039  )
        39           Ti  tau(  39) = (   0.7526397   0.2531540   0.0001652  )
        40           N   tau(  40) = (   0.5058615   0.2520523   0.0012690  )
        41           Ti  tau(  41) = (   0.5054377   0.0063043   0.5046986  )
        42           N   tau(  42) = (   0.7588730  -0.0018308   0.5066069  )
        43           Ti  tau(  43) = (   0.5010125   0.2568760   0.7551369  )
        44           N   tau(  44) = (   0.7585115   0.2489743   0.7586634  )
        45           Al  tau(  45) = (   0.7597979  -0.0039165   0.7634114  )
        46           N   tau(  46) = (   0.5098262  -0.0032267   0.7592040  )
        47           Ti  tau(  47) = (   0.7572945   0.2472929   0.5046012  )
        48           N   tau(  48) = (   0.5044994   0.2531391   0.5040908  )
        49           Ti  tau(  49) = (   0.4979149   0.5011542  -0.0029963  )
        50           N   tau(  50) = (   0.7643514   0.5104942  -0.0005576  )
        51           Al  tau(  51) = (   0.5078220   0.7562980   0.2535474  )
        52           N   tau(  52) = (   0.7536547   0.7590882   0.2491006  )
        53           Al  tau(  53) = (   0.7600875   0.5092759   0.2516844  )
        54           N   tau(  54) = (   0.5170150   0.5126393   0.2524278  )
        55           Al  tau(  55) = (   0.7597156   0.7566478   0.0003863  )
        56           N   tau(  56) = (   0.5140393   0.7577284   0.0072122  )
        57           Ti  tau(  57) = (   0.5034653   0.4980392   0.5082247  )
        58           N   tau(  58) = (   0.7656719   0.5079046   0.5054335  )
        59           Ti  tau(  59) = (   0.4990451   0.7517237   0.7587966  )
        60           N   tau(  60) = (   0.7632010   0.7596199   0.7619524  )
        61           Al  tau(  61) = (   0.7639182   0.5093542   0.7581730  )
        62           N   tau(  62) = (   0.5225549   0.5074365   0.7574499  )
        63           Ti  tau(  63) = (   0.7553911   0.7640194   0.5061288  )
        64           N   tau(  64) = (   0.4985681   0.7560657   0.4997693  )

     number of k points=     8  Gaussian smearing, width (Ry)=  0.0050
                       cart. coord. in units 2pi/alat
        k(    1) = (   0.0000000   0.0000000   0.0000000), wk =   0.2500000
        k(    2) = (   0.0000000   0.0000000  -0.5000000), wk =   0.2500000
        k(    3) = (   0.0000000  -0.5000000  -0.5000000), wk =   0.2500000
        k(    4) = (  -0.5000000  -0.5000000  -0.5000000), wk =   0.2500000
        k(    5) = (  -0.5000000   0.0000000   0.0000000), wk =   0.2500000
        k(    6) = (   0.0000000  -0.5000000   0.0000000), wk =   0.2500000
        k(    7) = (  -0.5000000   0.0000000   0.5000000), wk =   0.2500000
        k(    8) = (  -0.5000000   0.5000000   0.0000000), wk =   0.2500000

     Dense  grid:   239745 G-vectors     FFT dimensions: (  80,  80,  80)

     Estimated max dynamical RAM per process >     211.08 MB

     Estimated total dynamical RAM >       6.42 GB

     Check: negative core charge=   -0.000026

     Initial potential from superposition of free atoms

     starting charge     435.9427, renormalised to     436.0000
     Starting wfcs are  376 randomized atomic wfcs
     Checking if some PAW data can be deallocated... 

     total cpu time spent up to now is        4.0 secs

     Self-consistent Calculation

     iteration #  1     ecut=    60.00 Ry     beta= 0.20
     Davidson diagonalization with overlap
     ethr =  1.00E-02,  avg # of iterations =  2.0

     total cpu time spent up to now is       10.9 secs

     total energy              =   -5059.74699550 Ry
     estimated scf accuracy    <      19.63750532 Ry

     iteration #  2     ecut=    60.00 Ry     beta= 0.20
     Davidson diagonalization with overlap
     ethr =  4.50E-03,  avg # of iterations =  1.0

     total cpu time spent up to now is       16.4 secs

     total energy              =   -5054.84433794 Ry
     estimated scf accuracy    <      11.23023896 Ry

     iteration #  3     ecut=    60.00 Ry     beta= 0.20
     Davidson diagonalization with overlap
     ethr =  2.58E-03,  avg # of iterations =  3.2

     total cpu time spent up to now is       24.3 secs

     total energy              =   -5057.56951175 Ry
     estimated scf accuracy    <       0.66084480 Ry

     iteration #  4     ecut=    60.00 Ry     beta= 0.20
     Davidson diagonalization with overlap
     ethr =  1.52E-04,  avg # of iterations =  5.1

     total cpu time spent up to now is       32.5 secs

     total energy              =   -5057.62759449 Ry
     estimated scf accuracy    <       0.31254241 Ry

     iteration #  5     ecut=    60.00 Ry     beta= 0.20
     Davidson diagonalization with overlap
     ethr =  7.17E-05,  avg # of iterations =  2.5

     total cpu time spent up to now is       39.9 secs

     total energy              =   -5057.60839035 Ry
     estimated scf accuracy    <       0.17671311 Ry

     iteration #  6     ecut=    60.00 Ry     beta= 0.20
     Davidson diagonalization with overlap
     ethr =  4.05E-05,  avg # of iterations =  2.2

     total cpu time spent up to now is       47.3 secs

     total energy              =   -5057.63571694 Ry
     estimated scf accuracy    <       0.05732784 Ry

     iteration #  7     ecut=    60.00 Ry     beta= 0.20
     Davidson diagonalization with overlap
     ethr =  1.31E-05,  avg # of iterations =  3.4

     total cpu time spent up to now is       55.1 secs

     total energy              =   -5057.62590702 Ry
     estimated scf accuracy    <       0.02845847 Ry

     iteration #  8     ecut=    60.00 Ry     beta= 0.20
     Davidson diagonalization with overlap
     ethr =  6.53E-06,  avg # of iterations = 15.1

     total cpu time spent up to now is       67.7 secs

     total energy              =   -5057.63184852 Ry
     estimated scf accuracy    <       0.00219975 Ry

     iteration #  9     ecut=    60.00 Ry     beta= 0.20
     Davidson diagonalization with overlap
     ethr =  5.05E-07,  avg # of iterations =  9.5

     total cpu time spent up to now is       79.8 secs

     total energy              =   -5057.63211265 Ry
     estimated scf accuracy    <       0.00052308 Ry

     iteration # 10     ecut=    60.00 Ry     beta= 0.20
     Davidson diagonalization with overlap
     ethr =  1.20E-07,  avg # of iterations =  6.4

     total cpu time spent up to now is       89.0 secs

     total energy              =   -5057.63209643 Ry
     estimated scf accuracy    <       0.00031193 Ry

     iteration # 11     ecut=    60.00 Ry     beta= 0.20
     Davidson diagonalization with overlap
     ethr =  7.15E-08,  avg # of iterations =  2.2

     total cpu time spent up to now is       96.4 secs

     total energy              =   -5057.63214491 Ry
     estimated scf accuracy    <       0.00007671 Ry

     iteration # 12     ecut=    60.00 Ry     beta= 0.20
     Davidson diagonalization with overlap
     ethr =  1.76E-08,  avg # of iterations =  9.5

     total cpu time spent up to now is      107.2 secs

     total energy              =   -5057.63214238 Ry
     estimated scf accuracy    <       0.00005081 Ry

     iteration # 13     ecut=    60.00 Ry     beta= 0.20
     Davidson diagonalization with overlap
     ethr =  1.17E-08,  avg # of iterations =  2.0

     total cpu time spent up to now is      113.4 secs

     total energy              =   -5057.63214287 Ry
     estimated scf accuracy    <       0.00000898 Ry

     iteration # 14     ecut=    60.00 Ry     beta= 0.20
     Davidson diagonalization with overlap
     ethr =  2.06E-09,  avg # of iterations =  5.6

     total cpu time spent up to now is      122.3 secs

     total energy              =   -5057.63214404 Ry
     estimated scf accuracy    <       0.00000227 Ry

     iteration # 15     ecut=    60.00 Ry     beta= 0.20
     Davidson diagonalization with overlap
     ethr =  5.22E-10,  avg # of iterations =  3.9

     total cpu time spent up to now is      129.7 secs

     total energy              =   -5057.63214368 Ry
     estimated scf accuracy    <       0.00000147 Ry

     iteration # 16     ecut=    60.00 Ry     beta= 0.20
     Davidson diagonalization with overlap
     ethr =  3.36E-10,  avg # of iterations =  2.5

     total cpu time spent up to now is      136.9 secs

     total energy              =   -5057.63214385 Ry
     estimated scf accuracy    <       0.00000021 Ry

     iteration # 17     ecut=    60.00 Ry     beta= 0.20
     Davidson diagonalization with overlap
     ethr =  4.83E-11,  avg # of iterations =  7.9

     total cpu time spent up to now is      145.8 secs

     total energy              =   -5057.63214385 Ry
     estimated scf accuracy    <       0.00000012 Ry

     iteration # 18     ecut=    60.00 Ry     beta= 0.20
     Davidson diagonalization with overlap
     ethr =  2.72E-11,  avg # of iterations =  2.0

     total cpu time spent up to now is      152.5 secs

     total energy              =   -5057.63214385 Ry
     estimated scf accuracy    <       0.00000005 Ry

     iteration # 19     ecut=    60.00 Ry     beta= 0.20
     Davidson diagonalization with overlap
     ethr =  1.06E-11,  avg # of iterations =  4.4

     total cpu time spent up to now is      160.1 secs

     total energy              =   -5057.63214385 Ry
     estimated scf accuracy    <       0.00000001 Ry

     iteration # 20     ecut=    60.00 Ry     beta= 0.20
     Davidson diagonalization with overlap
     ethr =  3.01E-12,  avg # of iterations =  5.2

     total cpu time spent up to now is      167.2 secs

     End of self-consistent calculation

          k = 0.0000 0.0000 0.0000 ( 30047 PWs)   bands (ev):

   -41.7906 -41.7729 -41.6480 -41.5564 -41.5483 -41.5241 -41.4889 -41.4810
   -41.4684 -41.4340 -41.4254 -41.4013 -41.3952 -41.3705 -41.3543 -41.3406
   -41.3139 -41.2842 -41.2077 -41.1748 -18.2991 -18.2736 -18.2332 -18.2220
   -18.1959 -18.1639 -18.1472 -18.1334 -18.0810 -18.0643 -18.0605 -18.0399
   -18.0341 -18.0293 -18.0111 -17.9898 -17.9690 -17.9559 -17.9412 -17.9289
   -17.9280 -17.9196 -17.9128 -17.9037 -17.8953 -17.8831 -17.8691 -17.8628
   -17.8342 -17.8291 -17.8045 -17.8001 -17.7712 -17.7586 -17.7341 -17.7282
   -17.7189 -17.7022 -17.6914 -17.6840 -17.6720 -17.6593 -17.6456 -17.6284
   -17.6252 -17.6082 -17.5979 -17.5826 -17.5704 -17.5679 -17.5522 -17.5373
   -17.5228 -17.5063 -17.4961 -17.4769 -17.4523 -17.4398 -17.4127 -17.3691
    -2.2512  -0.9849  -0.9745  -0.8874  -0.5719  -0.4944  -0.4404   0.0809
     0.2182   0.2414   0.2426   0.2858   0.3275   0.4292   0.4397   0.4505
     0.5228   0.5849   0.6701   0.7004   0.7489   0.8014   0.8518   0.9005
     0.9979   1.0063   1.0317   1.0540   1.1445   1.2667   1.3187   1.3696
     6.3978   6.9896   7.2902   7.5359   8.0034   8.2093   8.2514   8.3347
     8.3582   8.4119   8.5516   8.5718   8.7906   8.7955   8.8473   8.9017
     8.9541   9.0662   9.1369   9.2409   9.2989   9.3333   9.4528   9.5434
     9.6057   9.6269   9.7866   9.8191   9.8519   9.8805   9.9244  10.0225
    10.0607  10.1777  10.2959  10.3510  10.4030  10.4133  10.4335  10.5137
    10.5284  10.5588  10.5871  10.6150  10.6295  10.6717  10.6880  10.7152
    10.7612  10.8195  10.9825  11.0231  11.0479  11.0773  11.1280  11.2212
    11.3450  11.3641  11.4208  11.4664  11.5349  11.5890  11.6438  11.7090
    11.7972  11.8110  11.8598  11.8891  11.9157  12.0116  12.1615  12.1746
    12.2145  12.2610  12.3210  12.4187  12.4788  12.5778  12.6495  12.6868
    12.7776  12.8030  12.8426  12.8999  12.9232  12.9831  12.9933  13.0250
    13.0848  13.1274  13.2270  13.2309  13.3472  13.5863  13.6718  13.7770
    14.1951  14.2539  14.2722  14.6610  14.8271  14.8992  15.0293  15.1853
    15.2551  16.1679  16.3531  16.4897  16.9990  17.1673  17.2343  17.2757
    17.2893  17.3313  17.3374  17.3563  17.4215  17.4450  17.4793  17.4991
    17.5487  17.5783  17.6464  17.6754  17.7398  17.7639  17.7926  17.8216
    17.8491  17.8800  17.9070  17.9128  17.9467  17.9842  17.9884  18.0197
    18.0355  18.0688  18.0839  18.1232  18.1323  18.1544  18.1697  18.2023
    18.2378  18.2454  18.2778  18.3029  18.3245  18.3348

          k = 0.0000 0.0000-0.5000 ( 29958 PWs)   bands (ev):

   -41.7905 -41.7729 -41.6480 -41.5562 -41.5466 -41.5266 -41.4888 -41.4803
   -41.4688 -41.4341 -41.4255 -41.4022 -41.3943 -41.3715 -41.3509 -41.3407
   -41.3152 -41.2843 -41.2078 -41.1748 -18.2667 -18.2395 -18.2272 -18.2228
   -18.1938 -18.1720 -18.1452 -18.1270 -18.1112 -18.0970 -18.0707 -18.0625
   -18.0359 -18.0302 -18.0264 -17.9932 -17.9846 -17.9700 -17.9667 -17.9598
   -17.9478 -17.9316 -17.9126 -17.9088 -17.8803 -17.8741 -17.8506 -17.8470
   -17.8116 -17.8056 -17.7844 -17.7709 -17.7510 -17.7458 -17.7378 -17.7077
   -17.7042 -17.7001 -17.6845 -17.6807 -17.6680 -17.6577 -17.6550 -17.6312
   -17.6238 -17.6104 -17.6050 -17.5922 -17.5749 -17.5615 -17.5489 -17.5436
   -17.5277 -17.5172 -17.5067 -17.4811 -17.4559 -17.4465 -17.4122 -17.3687
    -2.0376  -1.5757  -0.7475  -0.5515  -0.4465  -0.3893  -0.3395  -0.3017
    -0.0424   0.0084   0.1844   0.1989   0.4296   0.5225   0.5436   0.5702
     0.6238   0.6622   0.7005   0.7048   0.7878   0.8063   0.8563   0.9027
     0.9532   0.9887   1.0614   1.1085   1.1388   1.1806   1.2053   1.2262
     6.8593   7.0344   7.4920   7.6876   7.8673   7.8913   8.0721   8.1302
     8.3066   8.3516   8.4948   8.5585   8.6344   8.7450   8.9704   9.0110
     9.0398   9.1294   9.1957   9.2643   9.3230   9.3673   9.4353   9.4594
     9.5180   9.6016   9.6721   9.7325   9.7799   9.8392   9.8578   9.8868
     9.9465  10.0133  10.3691  10.4529  10.4865  10.5294  10.6155  10.6344
    10.6840  10.7653  10.8217  10.8461  10.8684  10.9061  10.9393  10.9704
    10.9771  11.0448  11.1254  11.1302  11.1683  11.2130  11.2648  11.3112
    11.4887  11.5384  11.5598  11.5900  11.6248  11.6540  11.6969  11.7212
    11.7867  11.8053  11.8464  11.8736  11.8852  11.9352  11.9936  12.0153
    12.0591  12.1422  12.1695  12.1997  12.2072  12.2752  12.3017  12.3487
    12.4296  12.4634  12.4692  12.5823  12.5864  12.6312  12.7335  12.8237
    12.8368  12.8707  12.9178  13.0294  13.5413  13.6194  13.6559  13.6939
    14.0036  14.1241  15.2152  15.2787  15.3284  15.4515  15.5894  15.8406
    15.9523  16.0328  16.0759  16.2635  16.3217  16.4461  16.5207  16.7418
    17.0029  17.1501  17.2014  17.2806  17.3217  17.3650  17.4324  17.5030
    17.5543  17.5888  17.6046  17.6248  17.6608  17.7269  17.7453  17.7600
    17.7953  17.8045  17.8253  17.8624  17.8916  17.9251  17.9483  17.9796
    18.0070  18.0451  18.0465  18.1053  18.1294  18.1655  18.2137  18.2252
    18.2641  18.3225  18.3606  18.3726  18.4043  18.4262

          k = 0.0000-0.5000-0.5000 ( 29944 PWs)   bands (ev):

   -41.7905 -41.7728 -41.6480 -41.5559 -41.5462 -41.5263 -41.4910 -41.4811
   -41.4669 -41.4352 -41.4249 -41.4014 -41.3953 -41.3711 -41.3496 -41.3411
   -41.3153 -41.2847 -41.2078 -41.1748 -18.2682 -18.2314 -18.2263 -18.2204
   -18.1931 -18.1651 -18.1480 -18.1418 -18.0977 -18.0969 -18.0703 -18.0591
   -18.0422 -18.0380 -18.0073 -18.0039 -17.9858 -17.9811 -17.9703 -17.9468
   -17.9397 -17.9331 -17.9208 -17.9040 -17.8874 -17.8792 -17.8565 -17.8427
   -17.8242 -17.8107 -17.7866 -17.7815 -17.7523 -17.7387 -17.7309 -17.7086
   -17.7024 -17.6912 -17.6771 -17.6682 -17.6636 -17.6584 -17.6489 -17.6316
   -17.6291 -17.6184 -17.6084 -17.6031 -17.5694 -17.5626 -17.5515 -17.5422
   -17.5252 -17.5208 -17.5054 -17.4786 -17.4615 -17.4371 -17.4129 -17.3693
    -1.8725  -1.3700  -1.2379  -0.9019  -0.4371  -0.2353  -0.1916  -0.0054
     0.0841   0.1313   0.2268   0.2703   0.3664   0.3855   0.4316   0.4830
     0.5297   0.5568   0.6403   0.6907   0.7957   0.8428   0.8849   0.9120
     0.9532   1.0304   1.0599   1.0778   1.0912   1.1570   1.1899   1.2621
     7.1415   7.3352   7.4803   7.5690   7.6845   7.8545   7.9950   8.2784
     8.3292   8.4459   8.5279   8.5516   8.6289   8.7418   8.8627   8.9019
     9.0219   9.0681   9.1133   9.1259   9.1763   9.2315   9.4058   9.4490
     9.4775   9.5796   9.7024   9.8433   9.8945   9.9838  10.0629  10.0867
    10.2694  10.3557  10.3799  10.4651  10.5307  10.6376  10.6718  10.7120
    10.7634  10.8205  10.8521  10.8979  10.9356  10.9584  11.0005  11.0353
    11.0864  11.1381  11.1605  11.2207  11.2562  11.3085  11.3514  11.3864
    11.4356  11.4649  11.5123  11.5211  11.5883  11.6143  11.6396  11.6659
    11.7049  11.7388  11.7899  11.8228  11.8408  11.8418  11.8543  11.9036
    11.9194  11.9901  12.0280  12.0514  12.0847  12.1312  12.1502  12.1802
    12.2594  12.2715  12.3945  12.4588  12.5867  12.6030  12.6917  12.8310
    12.8757  12.9015  12.9268  13.0135  13.0379  13.0842  13.2267  13.5022
    15.1000  15.2042  15.3486  15.5009  15.6140  15.6315  15.7858  15.9028
    15.9269  16.0007  16.0579  16.1778  16.3910  16.4098  16.5843  16.6191
    16.6352  16.6799  16.7326  16.8353  16.9059  16.9451  17.0508  17.1230
    17.2566  17.2977  17.4195  17.5236  17.5510  17.5739  17.6007  17.6523
    17.7237  17.7497  17.7845  17.8080  17.8476  17.8725  17.8970  18.0458
    18.0788  18.1282  18.1881  18.2289  18.2541  18.2893  18.3564  18.3763
    18.4047  18.4354  18.4812  18.4932  18.5140  18.5227

          k =-0.5000-0.5000-0.5000 ( 29992 PWs)   bands (ev):

   -41.7905 -41.7728 -41.6480 -41.5556 -41.5466 -41.5262 -41.4909 -41.4816
   -41.4669 -41.4374 -41.4226 -41.4022 -41.3951 -41.3693 -41.3501 -41.3420
   -41.3151 -41.2848 -41.2078 -41.1748 -18.2811 -18.2404 -18.2282 -18.2209
   -18.1920 -18.1572 -18.1521 -18.1243 -18.0976 -18.0776 -18.0667 -18.0579
   -18.0523 -18.0198 -18.0049 -17.9928 -17.9756 -17.9705 -17.9628 -17.9578
   -17.9406 -17.9289 -17.9163 -17.9088 -17.8966 -17.8895 -17.8698 -17.8679
   -17.8447 -17.8222 -17.8138 -17.7739 -17.7435 -17.7320 -17.7255 -17.6994
   -17.6961 -17.6887 -17.6750 -17.6718 -17.6572 -17.6556 -17.6503 -17.6485
   -17.6246 -17.6155 -17.6099 -17.6009 -17.5891 -17.5636 -17.5451 -17.5308
   -17.5260 -17.5225 -17.4991 -17.4782 -17.4520 -17.4399 -17.4123 -17.3698
    -1.7577  -1.1814  -1.1029  -0.8923  -0.7690  -0.6592  -0.3805  -0.1983
     0.2152   0.2442   0.3813   0.4126   0.4371   0.4703   0.5641   0.5796
     0.6143   0.6422   0.6693   0.6823   0.7410   0.7625   0.7831   0.8686
     0.8764   0.9546   0.9795   1.0202   1.0506   1.1188   1.2481   1.3272
     7.2668   7.5191   7.6082   7.6833   7.7904   7.8971   8.0607   8.1966
     8.2600   8.3293   8.4366   8.6175   8.6290   8.6909   8.8188   8.9476
     8.9962   9.0936   9.1380   9.3177   9.4037   9.4228   9.4685   9.5554
     9.6740   9.7305   9.8677   9.9412   9.9845  10.1023  10.1704  10.1921
    10.2354  10.3151  10.3358  10.3810  10.4328  10.4543  10.5010  10.5328
    10.5661  10.6275  10.6559  10.6815  10.7334  10.7710  10.7902  10.8517
    10.8930  10.9564  10.9746  11.0507  11.0713  11.0979  11.2149  11.2322
    11.3079  11.4034  11.4213  11.4604  11.4747  11.5259  11.5722  11.6045
    11.6358  11.6779  11.7046  11.7506  11.7745  11.8074  11.8531  11.9242
    11.9925  12.0188  12.0646  12.1206  12.2418  12.2538  12.3750  12.4298
    12.4422  12.5113  12.5198  12.6164  12.7215  12.8043  12.8542  12.8866
    12.9320  12.9693  13.0097  13.0482  13.0905  13.1885  13.3077  13.4301
    15.4529  15.5095  15.5955  15.6621  15.7213  15.7376  15.8388  15.9531
    15.9896  16.0419  16.1328  16.1537  16.2428  16.2888  16.3792  16.4454
    16.5066  16.5363  16.6562  16.6907  16.6988  16.7723  16.8798  16.9254
    17.0090  17.0457  17.0878  17.1724  17.2773  17.3409  17.3837  17.4266
    17.4794  17.5347  17.5607  17.6180  17.6670  17.9046  17.9276  18.1703
    18.1952  18.3094  18.4074  18.4334  18.4540  18.4703  18.4740  18.5282
    18.5585  18.5744  18.5821  18.5986  18.6118  18.6281

          k =-0.5000 0.0000 0.0000 ( 29958 PWs)   bands (ev):

   -41.7905 -41.7728 -41.6480 -41.5570 -41.5476 -41.5239 -41.4889 -41.4814
   -41.4684 -41.4354 -41.4238 -41.4011 -41.3961 -41.3692 -41.3531 -41.3418
   -41.3143 -41.2842 -41.2077 -41.1748 -18.2661 -18.2479 -18.2227 -18.2162
   -18.1949 -18.1736 -18.1638 -18.1460 -18.1180 -18.0902 -18.0731 -18.0476
   -18.0408 -18.0270 -18.0099 -17.9921 -17.9747 -17.9693 -17.9521 -17.9380
   -17.9290 -17.9217 -17.9123 -17.9033 -17.8921 -17.8756 -17.8659 -17.8496
   -17.8371 -17.8050 -17.7894 -17.7808 -17.7660 -17.7414 -17.7325 -17.7221
   -17.7120 -17.6880 -17.6818 -17.6763 -17.6692 -17.6579 -17.6506 -17.6373
   -17.6327 -17.6158 -17.5971 -17.5847 -17.5823 -17.5583 -17.5536 -17.5423
   -17.5237 -17.5191 -17.4996 -17.4758 -17.4519 -17.4464 -17.4137 -17.3693
    -2.0789  -1.4584  -0.8090  -0.6625  -0.4734  -0.3840  -0.2993  -0.1573
    -0.0229   0.0227   0.1293   0.2271   0.3793   0.4344   0.4822   0.5492
     0.6002   0.6626   0.7094   0.7470   0.7854   0.7909   0.8339   0.8716
     0.9025   0.9556   0.9956   1.0806   1.1710   1.2668   1.2849   1.4245
     6.7820   7.2664   7.5062   7.7704   7.9355   8.0454   8.1586   8.2675
     8.3274   8.3747   8.4767   8.5257   8.6942   8.7572   8.8202   8.8517
     9.0191   9.0702   9.0954   9.1733   9.2931   9.3220   9.3977   9.4164
     9.4672   9.4935   9.5482   9.6712   9.7092   9.7659   9.8494   9.9041
     9.9397  10.2730  10.3793  10.4575  10.4898  10.5248  10.5733  10.5842
    10.6391  10.6687  10.6947  10.7531  10.7660  10.8003  10.8716  10.9198
    10.9770  10.9959  11.0119  11.0795  11.1066  11.2489  11.2653  11.3404
    11.3943  11.4478  11.4942  11.5573  11.5831  11.6829  11.6948  11.7370
    11.7719  11.7928  11.8180  11.8657  11.8783  11.9535  12.0129  12.0427
    12.1517  12.1644  12.1775  12.2469  12.2518  12.3113  12.3425  12.3716
    12.4917  12.5533  12.6727  12.7445  12.7883  12.8006  12.8151  12.9121
    12.9287  12.9494  13.0007  13.1711  13.5552  13.5834  13.7195  13.7283
    13.7709  14.5018  14.9019  15.0440  15.4759  15.6136  15.6256  15.7004
    15.7993  16.0029  16.0129  16.2574  16.3482  16.6675  16.8581  16.8899
    17.0876  17.1847  17.2743  17.2911  17.3815  17.4327  17.4577  17.4845
    17.5134  17.5459  17.5549  17.5673  17.5977  17.6904  17.7211  17.7686
    17.7757  17.7992  17.8405  17.8720  17.8963  17.9339  17.9692  18.0003
    18.0261  18.0438  18.1003  18.1131  18.1641  18.1862  18.2066  18.2277
    18.2567  18.2842  18.3184  18.3886  18.4006  18.4534

          k = 0.0000-0.5000 0.0000 ( 29958 PWs)   bands (ev):

   -41.7905 -41.7728 -41.6480 -41.5556 -41.5463 -41.5283 -41.4875 -41.4797
   -41.4699 -41.4339 -41.4254 -41.4020 -41.3954 -41.3698 -41.3528 -41.3411
   -41.3140 -41.2846 -41.2078 -41.1748 -18.2896 -18.2597 -18.2403 -18.2196
   -18.1925 -18.1507 -18.1405 -18.1253 -18.0793 -18.0682 -18.0495 -18.0456
   -18.0356 -18.0340 -18.0128 -18.0071 -17.9986 -17.9842 -17.9752 -17.9700
   -17.9417 -17.9213 -17.9090 -17.9025 -17.8959 -17.8699 -17.8598 -17.8478
   -17.8189 -17.8080 -17.7972 -17.7804 -17.7614 -17.7519 -17.7340 -17.7271
   -17.7102 -17.7011 -17.6893 -17.6833 -17.6618 -17.6601 -17.6416 -17.6244
   -17.6158 -17.6102 -17.5994 -17.5876 -17.5722 -17.5679 -17.5594 -17.5368
   -17.5300 -17.5129 -17.4970 -17.4776 -17.4552 -17.4453 -17.4122 -17.3706
    -2.0570  -1.4869  -0.8582  -0.8111  -0.3292  -0.2836  -0.2008  -0.0895
    -0.0634  -0.0247   0.1149   0.2195   0.3358   0.4399   0.4663   0.5787
     0.6013   0.6531   0.7091   0.7488   0.7867   0.8241   0.8536   0.8804
     0.9083   0.9426   1.0305   1.1124   1.1668   1.1789   1.2626   1.3238
     6.8436   7.2425   7.4313   7.6357   7.6628   7.8920   8.0855   8.2999
     8.3427   8.4412   8.4611   8.4976   8.5630   8.6169   8.8422   8.8642
     9.0054   9.1309   9.1795   9.2370   9.3232   9.4096   9.4638   9.5207
     9.5752   9.6716   9.6916   9.7863   9.7906   9.8785   9.9321   9.9686
    10.1723  10.2149  10.2645  10.4184  10.5346  10.5561  10.5870  10.6115
    10.6294  10.6325  10.7213  10.7415  10.8095  10.8522  10.9464  10.9773
    11.0176  11.0743  11.1087  11.1841  11.2420  11.2996  11.3298  11.4113
    11.4451  11.5338  11.5648  11.6007  11.6206  11.6546  11.6804  11.7127
    11.7863  11.8031  11.8560  11.8806  11.9087  11.9592  11.9726  11.9990
    12.0187  12.0326  12.1177  12.1452  12.1628  12.1971  12.2631  12.3247
    12.4108  12.5082  12.5221  12.5464  12.6459  12.6573  12.6731  12.7765
    12.8546  12.8898  12.9653  12.9779  13.6144  13.6397  13.6553  13.6763
    13.7082  14.5483  14.9943  15.0058  15.5181  15.6169  15.7341  15.7926
    15.8301  16.1018  16.1629  16.2244  16.3776  16.4278  16.5215  16.7867
    16.9842  17.1299  17.1766  17.2649  17.3082  17.3558  17.3628  17.3778
    17.4603  17.4949  17.5481  17.5878  17.6279  17.6501  17.6680  17.6931
    17.7163  17.7610  17.8047  17.8960  17.9414  17.9630  18.0257  18.0357
    18.0570  18.1231  18.1341  18.1743  18.2172  18.2330  18.2560  18.2712
    18.3225  18.3509  18.3583  18.4011  18.4124  18.4375

          k =-0.5000 0.0000 0.5000 ( 29944 PWs)   bands (ev):

   -41.7905 -41.7728 -41.6479 -41.5560 -41.5469 -41.5264 -41.4887 -41.4806
   -41.4689 -41.4360 -41.4238 -41.4019 -41.3950 -41.3695 -41.3514 -41.3417
   -41.3151 -41.2844 -41.2078 -41.1748 -18.2775 -18.2493 -18.2245 -18.2176
   -18.1932 -18.1616 -18.1446 -18.1184 -18.0966 -18.0902 -18.0674 -18.0546
   -18.0427 -18.0327 -18.0143 -18.0012 -17.9967 -17.9729 -17.9652 -17.9587
   -17.9374 -17.9299 -17.9177 -17.9128 -17.9077 -17.8816 -17.8560 -17.8511
   -17.8202 -17.8087 -17.7848 -17.7625 -17.7481 -17.7473 -17.7275 -17.7108
   -17.6997 -17.6962 -17.6891 -17.6772 -17.6648 -17.6588 -17.6426 -17.6271
   -17.6215 -17.6123 -17.6099 -17.5954 -17.5944 -17.5600 -17.5553 -17.5343
   -17.5270 -17.5183 -17.5019 -17.4801 -17.4525 -17.4434 -17.4113 -17.3705
    -1.9061  -1.3645  -1.0868  -0.9486  -0.5967  -0.2203  -0.1019   0.0260
     0.0661   0.1760   0.2395   0.2703   0.2812   0.3266   0.3991   0.4624
     0.4897   0.5646   0.6739   0.6904   0.7348   0.8208   0.8615   0.8699
     0.9373   1.0030   1.0689   1.1004   1.1494   1.1767   1.3102   1.3600
     6.9245   7.2420   7.6315   7.9157   7.9950   8.1210   8.2180   8.2368
     8.2710   8.3348   8.3960   8.5595   8.7036   8.7676   8.8107   8.9342
     8.9780   8.9963   9.0319   9.1507   9.2184   9.2861   9.4067   9.4131
     9.4420   9.5219   9.5327   9.7215   9.7382   9.8485   9.9746  10.0161
    10.1182  10.1834  10.2795  10.4068  10.4798  10.5005  10.5446  10.6642
    10.7278  10.7489  10.8051  10.8228  10.8761  10.8958  10.9904  11.0120
    11.0481  11.0779  11.1041  11.1094  11.1714  11.2713  11.3407  11.3766
    11.3880  11.4104  11.4577  11.4953  11.5961  11.6205  11.6681  11.7010
    11.7212  11.7543  11.7864  11.8114  11.8427  11.8540  11.9001  11.9277
    12.0117  12.0768  12.1107  12.1550  12.2109  12.2326  12.2664  12.3790
    12.4447  12.4933  12.5474  12.6099  12.6402  12.7537  12.7844  12.8405
    12.8478  12.8746  13.0624  13.0739  13.1574  13.1839  13.2889  13.4485
    14.9260  15.1857  15.3034  15.4363  15.5667  15.6127  15.7034  15.7177
    16.0497  16.1320  16.2228  16.2924  16.3432  16.4209  16.5205  16.6418
    16.6522  16.7228  16.7419  16.8125  16.9197  16.9788  17.1508  17.2663
    17.3511  17.3545  17.3991  17.4145  17.5482  17.5987  17.6312  17.6954
    17.7249  17.7571  17.7741  17.8075  17.8646  17.9251  17.9778  17.9989
    18.0589  18.0819  18.1566  18.2321  18.2898  18.3267  18.3636  18.3902
    18.4141  18.4699  18.4792  18.5176  18.5551  18.5605

          k =-0.5000 0.5000 0.0000 ( 29944 PWs)   bands (ev):

   -41.7905 -41.7728 -41.6480 -41.5560 -41.5459 -41.5281 -41.4876 -41.4800
   -41.4700 -41.4354 -41.4239 -41.4015 -41.3963 -41.3687 -41.3516 -41.3423
   -41.3145 -41.2846 -41.2078 -41.1748 -18.2639 -18.2337 -18.2273 -18.2208
   -18.1919 -18.1497 -18.1476 -18.1236 -18.1113 -18.1038 -18.0819 -18.0733
   -18.0361 -18.0343 -18.0297 -18.0007 -17.9917 -17.9863 -17.9734 -17.9567
   -17.9499 -17.9176 -17.9037 -17.8946 -17.8829 -17.8679 -17.8598 -17.8511
   -17.8282 -17.7955 -17.7809 -17.7610 -17.7561 -17.7458 -17.7379 -17.7167
   -17.7046 -17.6962 -17.6874 -17.6714 -17.6618 -17.6486 -17.6437 -17.6355
   -17.6238 -17.6072 -17.6041 -17.5899 -17.5777 -17.5772 -17.5544 -17.5407
   -17.5274 -17.5197 -17.5034 -17.4792 -17.4592 -17.4454 -17.4135 -17.3683
    -1.9047  -1.3160  -1.2735  -0.7140  -0.4926  -0.3090  -0.1335  -0.0444
    -0.0204   0.0442   0.2633   0.2972   0.3254   0.3902   0.4261   0.4822
     0.5354   0.5509   0.5877   0.6964   0.7328   0.8202   0.8698   0.8999
     0.9321   0.9747   1.0317   1.0901   1.1709   1.2138   1.3113   1.3972
     7.0125   7.4297   7.4971   7.6665   7.8444   8.1711   8.2238   8.2645
     8.3720   8.4720   8.5159   8.6084   8.6720   8.7378   8.8293   8.8632
     8.9073   8.9287   9.0070   9.0851   9.1320   9.2203   9.3108   9.3565
     9.3847   9.3910   9.5232   9.7108   9.8684   9.9903  10.0372  10.1344
    10.2145  10.2827  10.3178  10.4156  10.4405  10.5345  10.6238  10.6726
    10.7330  10.7841  10.8090  10.8935  10.8988  10.9234  10.9591  11.0273
    11.0704  11.1056  11.1285  11.1800  11.1836  11.2530  11.2999  11.3718
    11.4225  11.4402  11.4876  11.5402  11.5507  11.5853  11.6074  11.6862
    11.7194  11.7355  11.7603  11.8180  11.8664  11.8870  11.9248  11.9698
    12.0101  12.0533  12.0710  12.1031  12.1359  12.2129  12.2437  12.3250
    12.3572  12.4293  12.4878  12.6331  12.7051  12.7217  12.7817  12.8485
    12.9070  12.9585  12.9618  12.9802  13.0764  13.1505  13.2546  13.4229
    14.9992  15.1470  15.3401  15.4200  15.5146  15.7182  15.7814  15.8422
    15.8892  16.0611  16.1867  16.2333  16.2820  16.4216  16.5282  16.5739
    16.6761  16.6963  16.7617  16.8942  17.0313  17.1046  17.1605  17.3792
    17.3878  17.4176  17.4835  17.5245  17.5501  17.5888  17.6248  17.6896
    17.7595  17.7932  17.8161  17.8721  17.9057  17.9309  17.9949  18.0173
    18.0330  18.0674  18.1067  18.1505  18.2024  18.2411  18.2725  18.3573
    18.4042  18.4365  18.4739  18.4935  18.5263  18.5712

     the Fermi energy is    16.0965 ev

!    total energy              =   -5057.63214385 Ry
     total all-electron energy =    -43491.365249 Ry
     estimated scf accuracy    <          5.5E-09 Ry
     smearing contrib. (-TS)   =      -0.00310551 Ry
     internal energy E=F+TS    =   -5057.62903835 Ry

     The total energy is F=E-TS. E is the sum of the following terms:
     one-electron contribution =    -813.05115734 Ry
     hartree contribution      =     696.21802472 Ry
     xc contribution           =    -594.31526480 Ry
     ewald contribution        =   -2368.65634354 Ry
     one-center paw contrib.   =   -1977.82429738 Ry

     convergence has been achieved in  20 iterations

     Forces acting on atoms (cartesian axes, Ry/au):

     atom    1 type  1   force =     0.02386811    0.01179949    0.02442505
     atom    2 type  2   force =    -0.00134222    0.02869678    0.02517497
     atom    3 type  3   force =     0.02136321    0.00215416    0.00444866
     atom    4 type  2   force =     0.00480999    0.00335187    0.00619534
     atom    5 type  3   force =     0.00420244    0.02726217    0.00032269
     atom    6 type  2   force =     0.02655728    0.03569328   -0.00056516
     atom    7 type  3   force =     0.00294738    0.00105792    0.02490670
     atom    8 type  2   force =     0.02443064    0.00014837    0.02440434
     atom    9 type  3   force =     0.03074098    0.02347930   -0.00132033
     atom   10 type  2   force =     0.00598163    0.02339366    0.00106412
     atom   11 type  3   force =     0.02148213   -0.00057135   -0.02380458
     atom   12 type  2   force =     0.00472912    0.00064105   -0.02707399
     atom   13 type  1   force =    -0.00290631    0.02772641   -0.02550142
     atom   14 type  2   force =     0.02600391    0.02801988   -0.03112282
     atom   15 type  3   force =    -0.00041814    0.00241964   -0.00346928
     atom   16 type  2   force =     0.02909125    0.00422659   -0.00418557
     atom   17 type  1   force =     0.02922427    0.00440036    0.01806589
     atom   18 type  2   force =    -0.00224992   -0.00700302    0.03133340
     atom   19 type  3   force =     0.01922121   -0.03558952    0.00186837
     atom   20 type  2   force =     0.00380459   -0.02651146    0.00455919
     atom   21 type  3   force =     0.00208839   -0.00260766    0.00060480
     atom   22 type  2   force =     0.02822719   -0.00576998   -0.00020975
     atom   23 type  3   force =     0.00325407   -0.02331183    0.02421024
     atom   24 type  2   force =     0.02887131   -0.01871937    0.02653283
     atom   25 type  1   force =     0.02524360   -0.00103291   -0.00169812
     atom   26 type  2   force =    -0.00090431    0.00134526   -0.00499487
     atom   27 type  1   force =     0.01993100   -0.02090002   -0.01942948
     atom   28 type  2   force =     0.00033282   -0.03062673   -0.02400662
     atom   29 type  3   force =     0.00208297   -0.00120263   -0.03308644
     atom   30 type  2   force =     0.03419692   -0.00278435   -0.02036686
     atom   31 type  1   force =     0.00260519   -0.02105334   -0.00020142
     atom   32 type  2   force =     0.02215076   -0.02188042    0.00132110
     atom   33 type  3   force =    -0.00529915    0.01909562    0.02413228
     atom   34 type  2   force =    -0.02975489    0.02580093    0.02490724
     atom   35 type  3   force =    -0.00265049    0.00116958    0.00242128
     atom   36 type  2   force =    -0.02734862    0.00043270    0.00320785
     atom   37 type  1   force =    -0.02939036    0.02140760   -0.00380322
     atom   38 type  2   force =     0.00105900    0.02198038    0.00542142
     atom   39 type  3   force =    -0.02145715   -0.00039271    0.02500382
     atom   40 type  2   force =    -0.00376542    0.00570805    0.02946459
     atom   41 type  3   force =    -0.00127082    0.01780822   -0.00030037
     atom   42 type  2   force =    -0.03392488    0.03868216    0.00144954
     atom   43 type  3   force =    -0.00215460   -0.00278232   -0.02474988
     atom   44 type  2   force =    -0.02662554   -0.00000880   -0.02684590
     atom   45 type  1   force =    -0.02029802    0.01750574   -0.01976123
     atom   46 type  2   force =    -0.00060280    0.02572311   -0.02846529
     atom   47 type  3   force =    -0.02289991   -0.00142877   -0.00459410
     atom   48 type  2   force =    -0.00579684    0.00609542   -0.00673976
     atom   49 type  3   force =    -0.00395812   -0.00008559    0.03115446
     atom   50 type  2   force =    -0.03137520   -0.00261550    0.01874965
     atom   51 type  1   force =    -0.00093675   -0.01993280    0.00214268
     atom   52 type  2   force =    -0.02056652   -0.02247991   -0.00084354
     atom   53 type  1   force =    -0.02771299    0.00052439    0.00174606
     atom   54 type  2   force =     0.00201340    0.00139207    0.00571685
     atom   55 type  1   force =    -0.02141890   -0.02044512    0.01831012
     atom   56 type  2   force =     0.00358233   -0.02735362    0.02377138
     atom   57 type  3   force =     0.00001048   -0.00139489   -0.00040134
     atom   58 type  2   force =    -0.02572960   -0.00631271    0.00043809
     atom   59 type  3   force =    -0.00097614   -0.01979532   -0.02153962
     atom   60 type  2   force =    -0.02811467   -0.02410798   -0.02335769
     atom   61 type  1   force =    -0.03178137    0.00398024   -0.01791896
     atom   62 type  2   force =    -0.00001271   -0.00579689   -0.03046940
     atom   63 type  3   force =    -0.01735382   -0.03375601   -0.00179834
     atom   64 type  2   force =    -0.00311039   -0.02486885   -0.00484960

     Total force =     0.251845     Total SCF correction =     0.000259


     Computing stress (Cartesian axis) and pressure

          total   stress  (Ry/bohr**3)                   (kbar)     P=      145.89
   0.00100463  -0.00003664   0.00007460          147.79       -5.39       10.97
  -0.00003664   0.00097851  -0.00003523           -5.39      143.94       -5.18
   0.00007460  -0.00003523   0.00099206           10.97       -5.18      145.94

 
     init_run     :      3.15s CPU      3.32s WALL (       1 calls)
     electrons    :    160.05s CPU    163.25s WALL (       1 calls)
     forces       :      1.71s CPU      1.76s WALL (       1 calls)
     stress       :     16.78s CPU     16.93s WALL (       1 calls)

     Called by init_run:
     wfcinit      :      2.72s CPU      2.81s WALL (       1 calls)
     potinit      :      0.21s CPU      0.22s WALL (       1 calls)
     hinit0       :      0.12s CPU      0.16s WALL (       1 calls)

     Called by electrons:
     c_bands      :    139.55s CPU    141.86s WALL (      20 calls)
     sum_band     :     14.63s CPU     15.07s WALL (      20 calls)
     v_of_rho     :      0.73s CPU      0.74s WALL (      21 calls)
     newd         :      1.19s CPU      1.41s WALL (      21 calls)
     PAW_pot      :      3.26s CPU      3.34s WALL (      21 calls)
     mix_rho      :      0.89s CPU      0.97s WALL (      20 calls)

     Called by c_bands:
     init_us_2    :      1.63s CPU      1.66s WALL (      86 calls)
     init_us_2:cp :      1.63s CPU      1.66s WALL (      86 calls)
     cegterg      :    115.81s CPU    117.96s WALL (      40 calls)

     Called by *egterg:
     cdiaghg      :     12.98s CPU     13.19s WALL (     208 calls)
     h_psi        :     57.01s CPU     57.87s WALL (     210 calls)
     s_psi        :     14.44s CPU     14.55s WALL (     210 calls)
     g_psi        :      0.27s CPU      0.27s WALL (     168 calls)

     Called by h_psi:
     h_psi:calbec :     13.77s CPU     13.87s WALL (     210 calls)
     vloc_psi     :     28.16s CPU     28.62s WALL (     210 calls)
     add_vuspsi   :     14.53s CPU     14.67s WALL (     210 calls)

     General routines
     calbec       :     20.60s CPU     20.75s WALL (     260 calls)
     fft          :      0.35s CPU      0.37s WALL (     256 calls)
     ffts         :      0.44s CPU      0.45s WALL (     415 calls)
     fftw         :     28.94s CPU     29.42s WALL (   62148 calls)
 
     Parallel routines
 
     PWSCF        :   3m 1.94s CPU   3m 6.21s WALL

 
   This run was terminated on:  17:14: 7  11May2026            

=------------------------------------------------------------------------------=
   JOB DONE.
=------------------------------------------------------------------------------=
